Water:acetone 9:1 solvent box
37000
    1ACTN    H6    1   4.283   6.229   0.533 -1.6765 -0.5481 -0.3966
    1ACTN    C3    2   4.302   6.149   0.461  0.2595 -0.2390 -0.2706
    1ACTN    H4    3   4.303   6.052   0.511  2.5984  0.1545  0.4729
    1ACTN    H5    4   4.214   6.139   0.397  0.2826  2.5698 -0.8144
    1ACTN    C2    5   4.430   6.176   0.387 -0.3528  0.8594  0.0471
    1ACTN    O1    6   4.534   6.147   0.443 -0.0952  0.1403  0.7513
    1ACTN    C1    7   4.424   6.264   0.268  0.5096 -0.4578  0.0199
    1ACTN    H1    8   4.432   6.213   0.172  2.5587 -0.8387  0.3735
    1ACTN    H2    9   4.514   6.325   0.259  0.1500 -0.0849 -1.2045
    1ACTN    H3   10   4.339   6.332   0.272  1.0953  0.2212  1.3692
    2ACTN    H6   11   2.556   0.659   4.628  0.6669 -1.2327  1.6419
    2ACTN    C3   12   2.658   0.694   4.617  0.2173 -0.4026 -0.2022
    2ACTN    H4   13   2.709   0.647   4.701 -0.3969  0.1506  0.4910
    2ACTN    H5   14   2.689   0.646   4.524 -1.2195 -1.8941  0.0670
    2ACTN    C2   15   2.669   0.844   4.607 -0.0309  0.5170 -0.5216
    2ACTN    O1   16   2.611   0.906   4.696  0.0140 -0.0259 -0.2573
    2ACTN    C1   17   2.727   0.894   4.480 -0.2908  0.8025  0.8233
    2ACTN    H1   18   2.821   0.840   4.465  0.0572  1.7356 -0.4503
    2ACTN    H2   19   2.756   0.999   4.485  0.3026  0.7496 -1.0672
    2ACTN    H3   20   2.659   0.883   4.395 -0.4418  0.4938  0.9826
    3ACTN    H6   21   5.973   3.427   2.341 -1.7945 -0.4917  2.3466
    3ACTN    C3   22   5.958   3.319   2.339 -0.0563 -0.7193  0.4701
    3ACTN    H4   23   5.911   3.299   2.435 -0.5301  0.6796  0.5364
    3ACTN    H5   24   5.885   3.302   2.260 -1.2924  4.3086  0.3934
    3ACTN    C2   25   6.088   3.247   2.324  0.0318  0.5180  0.3124
    3ACTN    O1   26   6.096   3.134   2.271 -0.5027 -0.0461  0.1716
    3ACTN    C1   27   6.211   3.286   2.406 -0.1053  0.0338 -0.2898
    3ACTN    H1   28   6.188   3.374   2.467 -1.7271  1.4149 -2.7951
    3ACTN    H2   29   6.292   3.309   2.337  0.1280  0.3959  0.1011
    3ACTN    H3   30   6.240   3.200   2.466 -1.7738 -1.2354 -1.2604
    4ACTN    H6   31   1.123   1.094   5.832  0.5265 -1.1385 -0.8238
    4ACTN    C3   32   1.122   1.112   5.724 -0.1101 -0.4897 -0.7192
    4ACTN    H4   33   1.131   1.220   5.713  0.4695 -0.5088 -0.4830
    4ACTN    H5   34   1.217   1.075   5.685  1.5763  1.2783  1.5174
    4ACTN    C2   35   0.994   1.070   5.664 -0.0796  0.2952 -0.3828
    4ACTN    O1   36   0.886   1.105   5.716 -0.2934 -0.0358  0.3966
    4ACTN    C1   37   0.988   1.006   5.531 -0.9562  0.1055 -0.7393
    4ACTN    H1   38   1.059   1.054   5.464 -0.0114 -0.3276 -0.0759
    4ACTN    H2   39   0.887   1.013   5.492 -2.1476  1.4111  2.4478
    4ACTN    H3   40   1.008   0.899   5.539 -0.3369  0.1734 -1.3165
    5ACTN    H6   41   4.262   4.301   5.823  1.3059 -1.5653  0.0754
    5ACTN    C3   42   4.165   4.251   5.818  0.6006 -0.2989  0.8902
    5ACTN    H4   43   4.138   4.242   5.713 -2.8466 -0.1158  1.7276
    5ACTN    H5   44   4.177   4.149   5.857  0.6967  0.0276  1.7277
    5ACTN    C2   45   4.050   4.333   5.880  0.2668 -0.0657  0.9650
    5ACTN    O1   46   3.942   4.286   5.897 -0.2872 -0.1599 -0.3399
    5ACTN    C1   47   4.075   4.472   5.911 -0.2249 -0.0527 -0.6964
    5ACTN    H1   48   4.114   4.471   6.013 -1.1122  0.7992 -0.3346
    5ACTN    H2   49   3.986   4.536   5.907 -0.4675 -0.2298  1.1252
    5ACTN    H3   50   4.147   4.518   5.843  0.5531  0.1301  0.2397
    6ACTN    H6   51   4.623   1.894   5.822  1.1551 -0.1880 -0.9706
    6ACTN    C3   52   4.620   1.792   5.784 -0.1355 -0.6923  0.4503
    6ACTN    H4   53   4.700   1.731   5.824 -1.0749 -1.5658  1.0210
    6ACTN    H5   54   4.522   1.749   5.805 -1.7752  3.2847  1.3234
    6ACTN    C2   55   4.623   1.796   5.639  0.2616  0.3702 -0.1560
    6ACTN    O1   56   4.726   1.762   5.580  0.0727 -0.4668 -0.0597
    6ACTN    C1   57   4.513   1.873   5.568  0.5799  0.5808 -0.0762
    6ACTN    H1   58   4.452   1.934   5.635 -0.7335 -2.0099  1.1761
    6ACTN    H2   59   4.459   1.817   5.492  1.3108 -0.4679  0.1681
    6ACTN    H3   60   4.575   1.947   5.516  2.6843 -0.7344  0.4676
    7ACTN    H6   61   6.836   5.813   0.291 -0.8804  0.4894  0.8966
    7ACTN    C3   62   6.901   5.894   0.320  0.1152  0.2348 -0.5697
    7ACTN    H4   63   6.870   5.925   0.420  2.9056  0.0917  0.4068
    7ACTN    H5   64   7.002   5.853   0.319  1.0444  2.2976  1.8105
    7ACTN    C2   65   6.880   6.003   0.220 -0.6669  0.3188 -0.2247
    7ACTN    O1   66   6.768   6.043   0.186 -0.1480  0.1304 -0.1998
    7ACTN    C1   67   7.003   6.085   0.185 -0.1317 -0.4002 -0.2517
    7ACTN    H1   68   7.087   6.015   0.182  0.4116  0.2049  0.4740
    7ACTN    H2   69   7.018   6.165   0.257  0.3856 -1.1941  0.5336
    7ACTN    H3   70   6.979   6.133   0.090 -0.7949 -0.9598 -0.3714
    8ACTN    H6   71   7.013   5.431   1.565  0.6355  1.3740  2.0718
    8ACTN    C3   72   7.112   5.412   1.522 -0.3124 -0.1308  0.4945
    8ACTN    H4   73   7.142   5.487   1.450  2.5589 -1.2335  0.4920
    8ACTN    H5   74   7.177   5.410   1.610 -0.0697 -1.9375  0.3021
    8ACTN    C2   75   7.114   5.278   1.452 -0.4993 -0.1325  0.4989
    8ACTN    O1   76   7.021   5.238   1.385 -0.3690 -0.1195 -0.4383
    8ACTN    C1   77   7.240   5.196   1.472 -0.0041  0.5609  0.3794
    8ACTN    H1   78   7.305   5.241   1.547  1.0551  1.8668 -1.2857
    8ACTN    H2   79   7.296   5.184   1.379 -1.4655 -2.5725 -0.1512
    8ACTN    H3   80   7.215   5.095   1.503  0.6969  0.5798  1.0226
    9ACTN    H6   81   6.309   3.233   7.158  1.5103 -1.0394 -0.8723
    9ACTN    C3   82   6.280   3.143   7.214 -0.9642 -0.2389 -0.7855
    9ACTN    H4   83   6.273   3.159   7.322  2.0094 -0.8920 -0.4362
    9ACTN    H5   84   6.181   3.111   7.183 -0.3025 -1.5697 -1.5716
    9ACTN    C2   85   6.379   3.030   7.191  0.4159 -0.4010 -0.2171
    9ACTN    O1   86   6.368   2.932   7.262  0.4979  0.3256 -0.2395
    9ACTN    C1   87   6.480   3.032   7.082 -0.4010  0.2092 -0.3983
    9ACTN    H1   88   6.503   3.130   7.041 -0.6628 -0.0293 -1.1332
    9ACTN    H2   89   6.452   2.967   6.999  2.7777  0.4677 -1.7299
    9ACTN    H3   90   6.573   2.991   7.122 -0.1937 -3.1527 -4.0503
   10ACTN    H6   91   0.572   4.732   0.788  3.2413  0.6592 -1.2782
   10ACTN    C3   92   0.536   4.720   0.686  0.0975 -0.2701 -0.1185
   10ACTN    H4   93   0.566   4.620   0.655  1.5076  0.8153 -2.4625
   10ACTN    H5   94   0.429   4.730   0.672  0.4281  2.9900 -0.5909
   10ACTN    C2   95   0.612   4.810   0.593  0.5401  0.3034 -0.9193
   10ACTN    O1   96   0.730   4.837   0.616  0.5202  0.4500 -0.3820
   10ACTN    C1   97   0.536   4.867   0.483 -0.0105 -0.4349 -1.2855
   10ACTN    H1   98   0.436   4.825   0.475 -0.0258 -0.6532 -0.0177
   10ACTN    H2   99   0.586   4.840   0.390 -0.0960 -0.4043 -1.3415
   10ACTN    H3  100   0.523   4.976   0.486  1.0473 -0.3260 -0.4432
   11ACTN    H6  101   5.694   1.217   6.129 -1.0225  1.3034  1.1901
   11ACTN    C3  102   5.744   1.302   6.082  0.6455 -0.2590  0.1008
   11ACTN    H4  103   5.788   1.265   5.990  1.3782 -0.5243  0.5549
   11ACTN    H5  104   5.663   1.373   6.068  1.8227  1.5378  2.0736
   11ACTN    C2  105   5.857   1.363   6.158  0.0183 -0.4449 -0.2797
   11ACTN    O1  106   5.897   1.482   6.132 -0.5850  0.3890 -0.2521
   11ACTN    C1  107   5.898   1.298   6.276  0.1632  0.4527 -0.3720
   11ACTN    H1  108   5.841   1.208   6.301 -1.1126  0.4009 -3.2028
   11ACTN    H2  109   5.908   1.358   6.366  0.7975 -1.8737  1.1395
   11ACTN    H3  110   5.997   1.255   6.259  1.3722  3.4836 -1.2979
   12ACTN    H6  111   5.496   5.253   1.139 -0.3030 -0.1403 -0.1193
   12ACTN    C3  112   5.463   5.351   1.105 -0.6893 -0.1786  0.1441
   12ACTN    H4  113   5.427   5.403   1.194 -0.3371 -0.4153  0.4249
   12ACTN    H5  114   5.550   5.410   1.075 -0.5104 -0.6845 -0.3200
   12ACTN    C2  115   5.368   5.344   0.997  0.1152 -0.2164  0.2477
   12ACTN    O1  116   5.382   5.419   0.903 -0.1045 -0.1324  0.1320
   12ACTN    C1  117   5.272   5.232   0.990  0.0214  0.5176  0.3215
   12ACTN    H1  118   5.263   5.178   1.084 -4.2570  0.4649 -0.0360
   12ACTN    H2  119   5.303   5.174   0.903 -1.9277  1.7224 -1.2353
   12ACTN    H3  120   5.174   5.275   0.969  0.5807  1.4659 -0.3896
   13ACTN    H6  121   6.384   5.176   2.960 -2.0313 -2.8703  1.0021
   13ACTN    C3  122   6.400   5.127   2.864  1.2045 -0.1555  0.0535
   13ACTN    H4  123   6.353   5.188   2.787  1.3885  1.3928  1.1388
   13ACTN    H5  124   6.508   5.130   2.850  1.4388 -1.5391  1.4118
   13ACTN    C2  125   6.340   4.988   2.880  0.3109 -0.8691 -0.3860
   13ACTN    O1  126   6.377   4.907   2.958  0.2908 -0.9654  0.1020
   13ACTN    C1  127   6.234   4.953   2.783 -0.2046 -0.1440 -0.0803
   13ACTN    H1  128   6.271   4.865   2.730 -1.5587 -0.3312 -0.7299
   13ACTN    H2  129   6.210   5.037   2.718  0.0276  0.3015  0.3993
   13ACTN    H3  130   6.142   4.920   2.831 -0.2558 -0.1292 -0.1698
   14ACTN    H6  131   7.158   7.177   2.584  2.2366  0.6024 -0.3156
   14ACTN    C3  132   7.182   7.093   2.650  0.1795 -0.6741 -1.1578
   14ACTN    H4  133   7.281   7.102   2.693 -0.7274 -1.8617  1.2406
   14ACTN    H5  134   7.114   7.106   2.734  1.9181  2.3299 -0.1546
   14ACTN    C2  135   7.150   6.970   2.572 -0.2372  0.4000  0.1033
   14ACTN    O1  136   7.199   6.865   2.606 -0.0108 -0.1152  0.4663
   14ACTN    C1  137   7.107   6.988   2.432  0.0177  0.0135 -0.7047
   14ACTN    H1  138   7.156   6.915   2.368 -0.2328 -2.3236  1.6903
   14ACTN    H2  139   7.126   7.086   2.389  3.2240 -0.3379 -0.1757
   14ACTN    H3  140   7.003   6.960   2.416  0.2387 -0.5767 -1.1474
   15ACTN    H6  141   1.837   0.576   1.245 -0.6970 -1.5838 -2.1371
   15ACTN    C3  142   1.738   0.542   1.276 -0.7934  0.1233 -0.4973
   15ACTN    H4  143   1.674   0.570   1.192 -0.5050 -1.1699 -1.1534
   15ACTN    H5  144   1.731   0.436   1.296  1.9910  0.3282  1.9008
   15ACTN    C2  145   1.691   0.611   1.400  0.2102  0.8550  0.4752
   15ACTN    O1  146   1.746   0.718   1.428  0.2113  0.5048 -0.1434
   15ACTN    C1  147   1.580   0.554   1.488 -0.1802  0.3299 -0.0110
   15ACTN    H1  148   1.599   0.545   1.595 -1.3106 -1.0003  0.0946
   15ACTN    H2  149   1.555   0.454   1.452 -0.0065  0.9248 -1.8423
   15ACTN    H3  150   1.490   0.611   1.465  0.5780  1.0402 -1.3136
   16ACTN    H6  151   5.859   3.047   5.244 -1.0050  1.2609 -1.8430
   16ACTN    C3  152   5.759   3.068   5.282 -0.0442  0.8501  1.0376
   16ACTN    H4  153   5.689   3.078   5.199  0.1292  0.5334  0.8508
   16ACTN    H5  154   5.724   2.997   5.357  1.4349 -1.7927 -0.6737
   16ACTN    C2  155   5.769   3.206   5.341 -0.2600  0.4953  0.1708
   16ACTN    O1  156   5.726   3.236   5.451  0.5481  0.1707  1.3344
   16ACTN    C1  157   5.795   3.315   5.244  0.5363 -0.2488  0.0688
   16ACTN    H1  158   5.806   3.410   5.297 -2.2750  0.7579 -1.0881
   16ACTN    H2  159   5.727   3.332   5.161  0.8006 -0.1121 -0.1222
   16ACTN    H3  160   5.892   3.304   5.195 -0.2095 -3.4568 -0.8332
   17ACTN    H6  161   0.745   0.855   1.061 -0.7770  1.7623 -0.3037
   17ACTN    C3  162   0.842   0.881   1.103 -0.0653 -0.1265 -0.7509
   17ACTN    H4  163   0.870   0.816   1.186 -0.0987  2.2045  1.1500
   17ACTN    H5  164   0.914   0.880   1.022  1.3984 -0.5949  0.5326
   17ACTN    C2  165   0.830   1.024   1.148 -0.3251  0.7584  0.2229
   17ACTN    O1  166   0.905   1.109   1.102 -0.6516  0.5892  0.2393
   17ACTN    C1  167   0.732   1.059   1.250 -0.0838  0.0531 -0.2048
   17ACTN    H1  168   0.705   0.968   1.302 -0.3679  1.1518  1.6156
   17ACTN    H2  169   0.639   1.110   1.225  0.6925  1.5526 -0.1088
   17ACTN    H3  170   0.777   1.107   1.337  3.0997 -0.7461 -1.3394
   18ACTN    H6  171   6.434   0.253   3.448  0.5913 -1.3847 -1.3324
   18ACTN    C3  172   6.444   0.326   3.367 -0.3160 -0.1707 -0.3618
   18ACTN    H4  173   6.419   0.284   3.270  0.1653 -1.1006 -0.0934
   18ACTN    H5  174   6.369   0.400   3.394  0.9261  0.8739  0.3235
   18ACTN    C2  175   6.581   0.384   3.369  0.2289 -0.0197  0.3612
   18ACTN    O1  176   6.676   0.314   3.346 -0.9216  0.4250  0.0672
   18ACTN    C1  177   6.608   0.528   3.382 -0.5860 -0.0953 -0.5115
   18ACTN    H1  178   6.630   0.561   3.280 -1.6862 -0.0038 -0.7258
   18ACTN    H2  179   6.684   0.537   3.460 -1.9736 -0.5286  0.9302
   18ACTN    H3  180   6.518   0.583   3.410 -0.2886  0.5763 -0.8741
   19ACTN    H6  181   3.677   4.422   0.784  1.2304  0.3129 -2.1622
   19ACTN    C3  182   3.775   4.375   0.787  1.0411  0.0086  0.5055
   19ACTN    H4  183   3.793   4.323   0.693 -2.1380  1.3183 -0.8841
   19ACTN    H5  184   3.850   4.455   0.790  0.1602  0.8967 -1.0300
   19ACTN    C2  185   3.802   4.275   0.900  0.0533 -0.1499  0.0186
   19ACTN    O1  186   3.756   4.164   0.880  0.2736 -0.0184 -0.3678
   19ACTN    C1  187   3.846   4.317   1.038  0.5488  0.0526  0.4814
   19ACTN    H1  188   3.851   4.426   1.048 -0.6250  0.3659 -1.9975
   19ACTN    H2  189   3.944   4.274   1.059  1.6075  2.1787  0.0829
   19ACTN    H3  190   3.778   4.270   1.108 -0.6974 -0.4422 -1.0185
   20ACTN    H6  191   3.817   1.393   6.471  2.3318  0.0050 -2.4384
   20ACTN    C3  192   3.759   1.315   6.423 -0.2807 -0.0629  0.6291
   20ACTN    H4  193   3.659   1.311   6.465  0.0557 -2.3404  1.2879
   20ACTN    H5  194   3.765   1.343   6.318  0.3457 -0.3476  0.5850
   20ACTN    C2  195   3.834   1.189   6.451  0.9063 -0.8872  0.0693
   20ACTN    O1  196   3.781   1.081   6.445  0.2506 -0.2403  0.7907
   20ACTN    C1  197   3.976   1.188   6.487  0.1305  0.2356 -0.5018
   20ACTN    H1  198   4.039   1.139   6.413 -1.1652 -0.5488 -1.1038
   20ACTN    H2  199   3.982   1.146   6.588  1.0831 -0.0529 -0.6771
   20ACTN    H3  200   4.017   1.289   6.487  0.9543 -0.0718 -2.6384
   21ACTN    H6  201   0.459   1.548   5.246  1.7475 -0.8942 -2.5380
   21ACTN    C3  202   0.379   1.475   5.264  0.5100  0.8897 -0.6426
   21ACTN    H4  203   0.326   1.460   5.170 -1.1363 -0.6796  0.5139
   21ACTN    H5  204   0.420   1.377   5.285 -1.0076  0.3864  0.0073
   21ACTN    C2  205   0.285   1.522   5.365 -0.5627 -0.7233 -0.7898
   21ACTN    O1  206   0.224   1.627   5.352  0.6011  0.5250 -0.0085
   21ACTN    C1  207   0.242   1.431   5.474  0.2347 -0.1483 -0.3163
   21ACTN    H1  208   0.136   1.406   5.466  0.3221 -0.0191 -2.1168
   21ACTN    H2  209   0.246   1.485   5.568 -1.8996  0.3930 -0.4991
   21ACTN    H3  210   0.302   1.341   5.477 -1.3761 -1.3834 -3.0044
   22ACTN    H6  211   1.213   0.871   4.841 -2.3291  0.4170  0.8988
   22ACTN    C3  212   1.186   0.966   4.794  0.4666  0.5411 -0.5386
   22ACTN    H4  213   1.082   0.964   4.762  0.2783  1.1005  0.0330
   22ACTN    H5  214   1.194   1.038   4.875  2.9935 -0.8231  0.4827
   22ACTN    C2  215   1.276   0.986   4.674 -0.4504  0.0842  0.1353
   22ACTN    O1  216   1.310   0.892   4.602  0.2441 -0.2291 -0.6125
   22ACTN    C1  217   1.328   1.124   4.664  0.0098 -0.7059 -0.3406
   22ACTN    H1  218   1.291   1.173   4.574 -0.6587  1.8843  1.2854
   22ACTN    H2  219   1.436   1.137   4.673  0.0344 -1.5061  0.5847
   22ACTN    H3  220   1.298   1.181   4.753  0.6773  0.5894 -0.9278
   23ACTN    H6  221   3.475   6.138   4.325  0.6122  0.3951  1.2367
   23ACTN    C3  222   3.390   6.162   4.388 -0.3155  0.4137 -0.0018
   23ACTN    H4  223   3.350   6.065   4.418 -2.9872  2.6383  4.1017
   23ACTN    H5  224   3.428   6.207   4.480 -2.1069  0.2615  0.8314
   23ACTN    C2  225   3.291   6.235   4.308  0.3604  0.1028  0.3883
   23ACTN    O1  226   3.306   6.352   4.282  0.3704  0.5993  0.3495
   23ACTN    C1  227   3.184   6.159   4.241  0.1385  1.0013 -0.0517
   23ACTN    H1  228   3.111   6.238   4.221  0.2390  1.6109  1.8280
   23ACTN    H2  229   3.140   6.084   4.307 -1.7421  0.4235 -1.9279
   23ACTN    H3  230   3.224   6.123   4.146  0.0921 -1.2581  0.7583
   24ACTN    H6  231   4.453   1.970   0.764  1.4856 -2.0678 -0.5261
   24ACTN    C3  232   4.417   1.918   0.852  0.4621  0.2926  0.4860
   24ACTN    H4  233   4.324   1.870   0.824  1.5340 -1.3230 -0.3657
   24ACTN    H5  234   4.494   1.848   0.885  1.7962  0.7727 -1.5210
   24ACTN    C2  235   4.387   2.026   0.950 -0.3432  0.0086  0.3700
   24ACTN    O1  236   4.473   2.057   1.036  0.0588 -0.2462  0.1816
   24ACTN    C1  237   4.260   2.097   0.959 -0.8826  0.4030  0.7209
   24ACTN    H1  238   4.263   2.202   0.931  1.6558  0.2565  0.3475
   24ACTN    H2  239   4.222   2.096   1.062 -0.4724 -0.8924  0.8746
   24ACTN    H3  240   4.181   2.042   0.908  0.7030 -2.1133  0.9123
   25ACTN    H6  241   4.480   0.463   5.565 -1.6330 -0.3196  0.0344
   25ACTN    C3  242   4.448   0.388   5.492 -0.1736 -0.0946 -0.8550
   25ACTN    H4  243   4.409   0.440   5.404 -2.3889 -0.8900 -0.3826
   25ACTN    H5  244   4.529   0.325   5.456 -0.4864 -1.1409  0.2506
   25ACTN    C2  245   4.344   0.303   5.543  0.4762  0.4754 -0.1587
   25ACTN    O1  246   4.286   0.226   5.461  0.6293  0.7996  0.1538
   25ACTN    C1  247   4.344   0.257   5.687 -0.2894 -0.1488 -0.1123
   25ACTN    H1  248   4.258   0.194   5.713  0.5364 -1.0105  0.5480
   25ACTN    H2  249   4.354   0.340   5.757  0.5238 -0.0279 -0.3655
   25ACTN    H3  250   4.427   0.188   5.702 -0.4320 -0.5384 -1.0925
   26ACTN    H6  251   0.777   0.930   5.096 -0.4950 -2.0840 -3.0846
   26ACTN    C3  252   0.844   0.992   5.037  0.6479  0.3125  0.5197
   26ACTN    H4  253   0.946   0.960   5.059 -0.7271 -4.8721  0.0219
   26ACTN    H5  254   0.821   0.975   4.932  0.2298 -0.1630  0.6865
   26ACTN    C2  255   0.817   1.138   5.077  0.1612  0.8089  0.2499
   26ACTN    O1  256   0.909   1.211   5.105  0.2136 -0.2054 -0.0461
   26ACTN    C1  257   0.674   1.183   5.048  0.0014  0.2069  0.3986
   26ACTN    H1  258   0.603   1.164   5.128 -2.0842  1.3774 -1.1298
   26ACTN    H2  259   0.641   1.125   4.962  0.9305 -0.8010  0.7085
   26ACTN    H3  260   0.673   1.289   5.021  0.3575  0.1270  0.0635
   27ACTN    H6  261   2.719   1.448   3.158 -0.5522  3.0215  1.5167
   27ACTN    C3  262   2.719   1.505   3.066  0.4688  0.2040 -0.3042
   27ACTN    H4  263   2.736   1.442   2.979  0.9477 -1.6486  1.1182
   27ACTN    H5  264   2.624   1.560   3.062 -0.0421 -0.6436 -0.0237
   27ACTN    C2  265   2.827   1.606   3.085  1.1225 -0.3291  0.2857
   27ACTN    O1  266   2.930   1.601   3.023 -0.0390 -0.2530 -0.2481
   27ACTN    C1  267   2.818   1.709   3.187 -0.0181 -1.3236 -0.0459
   27ACTN    H1  268   2.896   1.782   3.171 -0.4128 -0.3213  2.3930
   27ACTN    H2  269   2.819   1.664   3.287  1.3891  0.9689  1.0031
   27ACTN    H3  270   2.724   1.761   3.171  0.3230  0.0282  2.1745
   28ACTN    H6  271   2.062   1.834   3.872 -0.2628 -1.1931  0.5330
   28ACTN    C3  272   2.097   1.790   3.779 -0.1737 -0.0789  0.0220
   28ACTN    H4  273   2.028   1.826   3.702 -0.5252  0.1847  0.4573
   28ACTN    H5  274   2.097   1.681   3.786 -0.0977 -0.1602 -1.0802
   28ACTN    C2  275   2.231   1.846   3.778 -0.4374 -0.6901 -0.1696
   28ACTN    O1  276   2.311   1.777   3.716 -0.5997  0.0958 -0.7500
   28ACTN    C1  277   2.266   1.967   3.858  0.0819  0.1291 -0.4311
   28ACTN    H1  278   2.357   2.009   3.817  0.0866  0.4047 -0.1464
   28ACTN    H2  279   2.280   1.953   3.966 -2.0719 -0.6362 -0.2128
   28ACTN    H3  280   2.194   2.047   3.845  0.3479  0.0804 -2.2373
   29ACTN    H6  281   2.833   5.478   3.230 -0.8149 -0.9801 -0.6467
   29ACTN    C3  282   2.894   5.425   3.157 -0.0908  0.0440 -0.8115
   29ACTN    H4  283   2.854   5.434   3.056  1.8224  1.6001 -1.4555
   29ACTN    H5  284   2.989   5.477   3.157 -0.5206  0.8755 -2.2983
   29ACTN    C2  285   2.920   5.287   3.189  1.0461  0.4824 -0.2407
   29ACTN    O1  286   2.830   5.211   3.228 -0.0718  0.5186  0.2716
   29ACTN    C1  287   3.064   5.240   3.208 -0.1321 -0.3533  0.7023
   29ACTN    H1  288   3.069   5.185   3.303  1.7730  0.5393  1.1471
   29ACTN    H2  289   3.132   5.324   3.227 -1.3137  0.7702  0.0329
   29ACTN    H3  290   3.106   5.179   3.128  0.1473  2.4353 -1.3508
   30ACTN    H6  291   6.844   3.647   3.120  0.4113 -2.1600 -0.6905
   30ACTN    C3  292   6.748   3.613   3.082 -0.8162 -0.1024  0.5315
   30ACTN    H4  293   6.697   3.699   3.037  0.6925  0.3004 -0.4250
   30ACTN    H5  294   6.775   3.540   3.006 -2.7167 -0.8232  0.5025
   30ACTN    C2  295   6.683   3.548   3.191 -0.1680 -0.2250 -0.2526
   30ACTN    O1  296   6.623   3.613   3.272  0.3416  0.2642 -0.3919
   30ACTN    C1  297   6.682   3.404   3.203  0.1067  0.5863  0.5177
   30ACTN    H1  298   6.706   3.358   3.107  1.3847  2.0575  0.0948
   30ACTN    H2  299   6.578   3.379   3.225  0.4208 -0.0955  1.2107
   30ACTN    H3  300   6.740   3.361   3.284 -0.7988  0.5890  1.1678
   31ACTN    H6  301   6.056   1.995   3.843  1.8203  2.4057 -2.5245
   31ACTN    C3  302   6.141   1.929   3.825  0.5712 -0.0924  0.3311
   31ACTN    H4  303   6.116   1.826   3.849 -0.5715  0.1853  0.3706
   31ACTN    H5  304   6.160   1.926   3.718 -0.3054  0.4061  0.1499
   31ACTN    C2  305   6.265   1.981   3.887 -0.6094 -0.4102 -0.2582
   31ACTN    O1  306   6.274   1.980   4.008  0.1331  0.1781  0.2722
   31ACTN    C1  307   6.389   2.011   3.816 -0.2475  0.2658  0.3548
   31ACTN    H1  308   6.482   2.007   3.873  1.2595 -0.2726 -2.0895
   31ACTN    H2  309   6.379   2.112   3.776 -2.3611  0.0187  0.2046
   31ACTN    H3  310   6.403   1.943   3.733 -1.8028  0.5517 -0.1720
   32ACTN    H6  311   0.203   0.629   6.467 -0.2094  0.3563 -0.9907
   32ACTN    C3  312   0.109   0.661   6.421 -0.6761  0.6091  0.1180
   32ACTN    H4  313   0.124   0.753   6.364 -3.3861  0.7234 -0.4824
   32ACTN    H5  314   0.076   0.587   6.348  0.0431  0.8061 -0.4158
   32ACTN    C2  315  -0.001   0.676   6.523 -0.0770  0.1581  0.1012
   32ACTN    O1  316  -0.022   0.788   6.574  0.2045 -0.6643 -0.4625
   32ACTN    C1  317  -0.099   0.561   6.567 -0.5406 -0.2141  0.1489
   32ACTN    H1  318  -0.067   0.514   6.660  1.5193 -1.2567 -1.0348
   32ACTN    H2  319  -0.102   0.484   6.490  3.0329 -0.7759  0.4916
   32ACTN    H3  320  -0.201   0.596   6.582 -0.5136  0.0162 -0.2068
   33ACTN    H6  321   4.565   0.506   4.975  1.5324 -1.3879 -0.5287
   33ACTN    C3  322   4.614   0.589   4.925 -0.0317  0.4530  0.9026
   33ACTN    H4  323   4.544   0.656   4.876 -0.8299 -0.7337  0.4036
   33ACTN    H5  324   4.665   0.653   4.997 -2.4328  1.7013  1.5335
   33ACTN    C2  325   4.726   0.537   4.838 -0.5636 -0.7766 -0.5171
   33ACTN    O1  326   4.803   0.450   4.880  0.2357  0.3356  0.6309
   33ACTN    C1  327   4.736   0.584   4.695  0.2102  0.4361  0.0378
   33ACTN    H1  328   4.698   0.686   4.681  2.8150  1.5853  0.9668
   33ACTN    H2  329   4.672   0.516   4.639 -0.4657  0.5814  0.6243
   33ACTN    H3  330   4.838   0.576   4.655  0.7568 -3.4884  2.0236
   34ACTN    H6  331   0.937   4.661   2.740  0.1130  0.9109  1.0208
   34ACTN    C3  332   0.912   4.725   2.655  0.0788 -0.0575  0.2920
   34ACTN    H4  333   0.907   4.830   2.685  1.4234  0.1695 -0.2294
   34ACTN    H5  334   0.986   4.712   2.576 -1.0048 -2.5855 -0.3769
   34ACTN    C2  335   0.785   4.670   2.601  0.2739 -0.2049 -0.2602
   34ACTN    O1  336   0.748   4.562   2.629 -0.4862 -0.5231  0.1086
   34ACTN    C1  337   0.712   4.758   2.508 -0.1593  0.2076  0.0042
   34ACTN    H1  338   0.616   4.722   2.471 -0.6789  0.3129  1.2082
   34ACTN    H2  339   0.770   4.777   2.418  0.3962 -2.6967 -0.3118
   34ACTN    H3  340   0.691   4.852   2.558  2.2996  1.5694 -1.4191
   35ACTN    H6  341   5.408   6.211   1.134 -0.1528 -0.9390 -0.9631
   35ACTN    C3  342   5.499   6.249   1.086  0.2768 -0.2270  0.3976
   35ACTN    H4  343   5.577   6.175   1.102  0.7803 -0.0340 -1.1350
   35ACTN    H5  344   5.482   6.254   0.979 -0.5445 -0.8394  0.4948
   35ACTN    C2  345   5.545   6.383   1.135 -0.3808 -1.2722 -0.2156
   35ACTN    O1  346   5.483   6.451   1.215 -0.6348  0.5084 -0.3796
   35ACTN    C1  347   5.688   6.421   1.108  0.7477 -0.0362 -0.0299
   35ACTN    H1  348   5.752   6.372   1.181  2.0434  2.8508  0.8308
   35ACTN    H2  349   5.717   6.526   1.119  1.8925 -0.2929 -0.4403
   35ACTN    H3  350   5.713   6.390   1.006  2.9546  2.1041 -0.1921
   36ACTN    H6  351   4.629   2.728   2.158 -0.0826 -0.6342  0.4520
   36ACTN    C3  352   4.587   2.701   2.254 -0.4862 -0.6529  0.2712
   36ACTN    H4  353   4.579   2.593   2.269  1.0145 -1.1092 -2.0309
   36ACTN    H5  354   4.663   2.732   2.325 -0.7771  0.7730 -0.0376
   36ACTN    C2  355   4.462   2.771   2.289 -0.0231  0.6738  0.2603
   36ACTN    O1  356   4.427   2.778   2.406 -0.3686  0.2202  0.4601
   36ACTN    C1  357   4.402   2.854   2.184 -0.6296  0.5335  0.7938
   36ACTN    H1  358   4.311   2.906   2.213 -0.6761 -0.2254  2.0509
   36ACTN    H2  359   4.401   2.800   2.089 -0.1878  3.5124 -0.9483
   36ACTN    H3  360   4.474   2.934   2.167 -0.9293  0.8196  0.8687
   37ACTN    H6  361   2.984   2.056   2.666 -1.3179  0.4589  1.6710
   37ACTN    C3  362   3.039   1.998   2.741  0.4685 -0.6841 -0.4521
   37ACTN    H4  363   3.112   1.938   2.688  1.3421 -2.1870  2.4046
   37ACTN    H5  364   3.098   2.060   2.808  1.7647 -1.2200 -1.0777
   37ACTN    C2  365   2.936   1.918   2.813  0.0240 -0.3587 -0.6890
   37ACTN    O1  366   2.925   1.931   2.934  0.3313 -0.1195 -0.3134
   37ACTN    C1  367   2.863   1.801   2.747  0.4967  0.1759 -0.1129
   37ACTN    H1  368   2.763   1.832   2.717 -0.3545 -0.9998  1.4435
   37ACTN    H2  369   2.858   1.712   2.810 -0.0203  1.9129  2.3356
   37ACTN    H3  370   2.919   1.774   2.657  0.3765  1.9091 -0.7310
   38ACTN    H6  371   6.467   5.367   0.805 -0.8837  1.3144 -1.0832
   38ACTN    C3  372   6.518   5.291   0.745 -0.1772  0.0332  1.0782
   38ACTN    H4  373   6.614   5.264   0.787  0.3218 -3.6566 -2.1507
   38ACTN    H5  374   6.457   5.200   0.742 -2.6069  1.6381 -0.9634
   38ACTN    C2  375   6.537   5.348   0.608  0.3640  0.5833 -0.0581
   38ACTN    O1  376   6.631   5.425   0.589 -0.5680 -0.4015 -0.1718
   38ACTN    C1  377   6.415   5.360   0.516  0.1031 -0.2218  0.4554
   38ACTN    H1  378   6.433   5.306   0.422  1.5111 -0.6376  0.9543
   38ACTN    H2  379   6.390   5.464   0.501 -1.3535 -0.8084 -1.3959
   38ACTN    H3  380   6.327   5.314   0.561 -0.7144  1.1991  0.3094
   39ACTN    H6  381   0.950   3.836   4.530 -0.8050 -0.7279  2.0118
   39ACTN    C3  382   1.001   3.740   4.521  0.1020 -0.1259  0.5808
   39ACTN    H4  383   0.923   3.664   4.517  0.5287 -0.5991  1.1382
   39ACTN    H5  384   1.059   3.742   4.428 -0.6795  2.3297  0.1167
   39ACTN    C2  385   1.094   3.713   4.635  0.4620 -0.2071  0.6091
   39ACTN    O1  386   1.109   3.793   4.729  0.0304 -0.0329  0.6003
   39ACTN    C1  387   1.181   3.589   4.621  0.2470  0.3061 -0.0348
   39ACTN    H1  388   1.178   3.534   4.715 -1.1386 -0.9084 -0.7734
   39ACTN    H2  389   1.284   3.617   4.598  0.2150  0.8901  0.5095
   39ACTN    H3  390   1.148   3.527   4.538  0.1949  0.5620 -0.2056
   40ACTN    H6  391   0.202   6.299   0.736 -0.8962 -0.8874 -0.7921
   40ACTN    C3  392   0.287   6.233   0.722 -0.0455  0.0563 -0.1639
   40ACTN    H4  393   0.367   6.261   0.791  0.0294 -0.1777 -0.1535
   40ACTN    H5  394   0.336   6.239   0.625 -0.1174 -1.6021 -0.3318
   40ACTN    C2  395   0.246   6.090   0.748  0.2994  0.5485 -0.0028
   40ACTN    O1  396   0.250   6.047   0.864  0.5066  0.2083  0.4114
   40ACTN    C1  397   0.160   6.026   0.646 -0.2135 -0.3917 -0.1882
   40ACTN    H1  398   0.060   6.066   0.628 -0.4630  0.2541  2.5259
   40ACTN    H2  399   0.154   5.921   0.675 -0.3409  0.0372  1.3468
   40ACTN    H3  400   0.213   6.031   0.551  1.8792  0.3370  0.9987
   41ACTN    H6  401   0.979   6.872   2.849 -2.5351 -1.1270  0.7065
   41ACTN    C3  402   0.968   6.947   2.927 -0.3075 -0.3863  0.3486
   41ACTN    H4  403   0.981   7.047   2.887  1.8367 -0.8879 -0.2707
   41ACTN    H5  404   0.870   6.932   2.973 -0.0179  1.1955  1.4986
   41ACTN    C2  405   1.057   6.918   3.035 -1.4938 -0.3530 -0.5919
   41ACTN    O1  406   1.163   6.861   3.003  0.1309  0.1973 -0.2396
   41ACTN    C1  407   1.007   6.918   3.176 -0.7045  0.0758 -0.5776
   41ACTN    H1  408   1.086   6.914   3.251 -0.6591 -2.7541 -0.6969
   41ACTN    H2  409   0.953   6.823   3.180 -1.4600  0.4194 -2.1715
   41ACTN    H3  410   0.939   6.998   3.202  0.8029  1.2772 -0.2487
   42ACTN    H6  411   4.239   5.248   0.794 -2.1712  1.0645 -0.5354
   42ACTN    C3  412   4.302   5.333   0.769  0.3304 -0.4896  0.3330
   42ACTN    H4  413   4.284   5.359   0.664  2.0500 -1.3225 -0.1838
   42ACTN    H5  414   4.273   5.418   0.831 -1.0665 -1.2899  0.7955
   42ACTN    C2  415   4.450   5.329   0.793  0.6297  0.2373  0.7807
   42ACTN    O1  416   4.500   5.219   0.829 -0.4556  0.0991  0.1695
   42ACTN    C1  417   4.536   5.448   0.784  0.4468 -0.4238  1.0198
   42ACTN    H1  418   4.479   5.528   0.736 -0.1858 -0.7750  1.1649
   42ACTN    H2  419   4.624   5.423   0.725 -1.1067 -1.0017 -1.1326
   42ACTN    H3  420   4.569   5.482   0.882  0.8626  0.9103  0.4200
   43ACTN    H6  421   0.645   0.225   0.451 -0.1571  2.0336 -1.3330
   43ACTN    C3  422   0.681   0.180   0.359  0.1822 -0.6756  0.0732
   43ACTN    H4  423   0.637   0.082   0.339  2.1543 -1.3011 -1.3296
   43ACTN    H5  424   0.651   0.254   0.285  1.7462  0.7027  0.7942
   43ACTN    C2  425   0.826   0.166   0.348 -0.0188  0.8117 -0.0094
   43ACTN    O1  426   0.902   0.211   0.268  0.1812  0.3529 -0.0313
   43ACTN    C1  427   0.888   0.082   0.458  0.2818  0.3883 -0.4961
   43ACTN    H1  428   0.917  -0.015   0.418  0.8241  0.8281 -1.1895
   43ACTN    H2  429   0.820   0.080   0.543  0.0649  1.9018 -0.6153
   43ACTN    H3  430   0.981   0.129   0.488  1.5362 -2.5465  0.4354
   44ACTN    H6  431   1.119   0.535   5.555 -1.5288  0.6732 -2.6095
   44ACTN    C3  432   1.040   0.480   5.606  0.3068  0.0726 -0.3363
   44ACTN    H4  433   1.042   0.378   5.565 -0.8929  0.6942 -2.0247
   44ACTN    H5  434   1.066   0.489   5.711 -3.4079  0.7571  0.6053
   44ACTN    C2  435   0.913   0.549   5.580  0.5128 -0.4423 -0.3841
   44ACTN    O1  436   0.879   0.656   5.624 -0.2217  0.2943  0.2336
   44ACTN    C1  437   0.809   0.461   5.515 -0.4059  0.7621 -0.3102
   44ACTN    H1  438   0.838   0.446   5.411 -1.2887  0.3049 -0.4940
   44ACTN    H2  439   0.707   0.497   5.505 -1.6932 -2.7752 -0.5143
   44ACTN    H3  440   0.800   0.362   5.558  1.5242 -0.3285 -2.3095
   45ACTN    H6  441   5.814   1.259   4.612  2.7725 -0.4146 -2.2004
   45ACTN    C3  442   5.850   1.357   4.642 -0.3202  0.0767  0.1566
   45ACTN    H4  443   5.822   1.390   4.742 -0.1909 -0.9957  0.5520
   45ACTN    H5  444   5.807   1.428   4.571 -2.7538 -2.1043 -0.5956
   45ACTN    C2  445   6.000   1.370   4.628 -1.0600  0.0982 -0.1912
   45ACTN    O1  446   6.070   1.362   4.730  0.6524 -0.2626 -0.3422
   45ACTN    C1  447   6.044   1.379   4.479 -0.6117 -0.2146 -1.0680
   45ACTN    H1  448   6.032   1.483   4.448  2.3790  1.5353  3.1087
   45ACTN    H2  449   5.969   1.320   4.428  1.1988 -2.3329 -1.3612
   45ACTN    H3  450   6.146   1.341   4.467  0.0061  0.7996  0.6823
   46ACTN    H6  451   6.007   2.156   6.089  0.9060 -2.1429  1.2484
   46ACTN    C3  452   5.902   2.126   6.079  0.2535  0.5962 -0.7408
   46ACTN    H4  453   5.890   2.062   5.992 -1.2427 -0.6930  0.3884
   46ACTN    H5  454   5.876   2.059   6.160 -1.5374  3.3779  1.0736
   46ACTN    C2  455   5.807   2.242   6.066  0.7644 -0.4336 -0.5619
   46ACTN    O1  456   5.773   2.282   5.954 -0.3054 -0.3677 -0.2544
   46ACTN    C1  457   5.732   2.294   6.183  0.1371 -0.5420  0.8122
   46ACTN    H1  458   5.659   2.224   6.223 -0.5656 -0.2956 -0.0191
   46ACTN    H2  459   5.673   2.384   6.164  0.8424 -0.0080  1.1247
   46ACTN    H3  460   5.803   2.324   6.261 -1.2523  2.3016  1.0400
   47ACTN    H6  461   2.262   2.099   5.249  1.1753 -1.5227  2.8081
   47ACTN    C3  462   2.329   2.050   5.180 -0.0815 -0.2905  0.6605
   47ACTN    H4  463   2.312   2.095   5.082  0.8704  1.8061  1.4313
   47ACTN    H5  464   2.424   2.084   5.221 -0.2437  1.5424 -0.4489
   47ACTN    C2  465   2.324   1.906   5.185  0.2206 -0.2014 -0.1904
   47ACTN    O1  466   2.413   1.839   5.240  1.0979  0.5457  0.4841
   47ACTN    C1  467   2.200   1.834   5.146  0.3683  0.0132 -0.2763
   47ACTN    H1  468   2.135   1.894   5.081  1.2681  1.7454  0.3806
   47ACTN    H2  469   2.158   1.793   5.238 -0.9836  0.7301 -0.5594
   47ACTN    H3  470   2.222   1.752   5.078  3.5183 -1.3012  2.2035
   48ACTN    H6  471   3.191   3.772   7.340  0.1906 -0.2602  2.9162
   48ACTN    C3  472   3.295   3.743   7.322 -0.3000  0.0467 -0.6973
   48ACTN    H4  473   3.333   3.696   7.412  1.4003  1.7932 -0.4584
   48ACTN    H5  474   3.289   3.669   7.242 -0.4447 -1.0366  0.3100
   48ACTN    C2  475   3.378   3.858   7.270  0.8450 -0.0404 -0.3613
   48ACTN    O1  476   3.478   3.880   7.332 -0.1383 -0.0086  0.1991
   48ACTN    C1  477   3.323   3.963   7.171 -0.0722 -0.0908 -0.8578
   48ACTN    H1  478   3.357   3.948   7.068 -0.1334  1.0072 -1.0409
   48ACTN    H2  479   3.356   4.061   7.205  3.5817 -1.5199  0.0043
   48ACTN    H3  480   3.215   3.959   7.180 -0.1024  1.6928 -0.3564
   49ACTN    H6  481   1.719   6.671   4.629  1.0024 -1.6683  0.3106
   49ACTN    C3  482   1.690   6.656   4.733  0.1572  0.6450  0.4312
   49ACTN    H4  483   1.707   6.550   4.749 -4.1553  0.0270  1.6594
   49ACTN    H5  484   1.753   6.725   4.789  2.1866 -0.2720 -0.6734
   49ACTN    C2  485   1.542   6.678   4.756 -0.0328  0.2434  0.3659
   49ACTN    O1  486   1.459   6.592   4.780  0.1897 -0.0792 -0.1698
   49ACTN    C1  487   1.500   6.820   4.733 -1.0621 -0.3057 -0.0038
   49ACTN    H1  488   1.398   6.833   4.768 -1.0960 -1.0839  0.1993
   49ACTN    H2  489   1.500   6.849   4.628 -0.8492  0.1556  0.1188
   49ACTN    H3  490   1.557   6.896   4.787 -1.5126 -0.2787  0.4412
   50ACTN    H6  491   6.719   7.238   4.206 -0.0319 -0.0404  0.8933
   50ACTN    C3  492   6.743   7.311   4.129 -0.1205 -0.4479  0.4765
   50ACTN    H4  493   6.688   7.280   4.040  0.7419 -2.1736  0.5262
   50ACTN    H5  494   6.708   7.408   4.164 -1.8873 -1.6244  2.0489
   50ACTN    C2  495   6.886   7.311   4.094 -1.2378  0.1055 -0.7060
   50ACTN    O1  496   6.954   7.407   4.131 -0.2360 -0.2632  0.6583
   50ACTN    C1  497   6.959   7.206   4.019 -0.6202  0.9167 -0.5840
   50ACTN    H1  498   6.982   7.118   4.080  2.7254  1.3412 -1.1703
   50ACTN    H2  499   7.058   7.231   3.982 -0.0041 -0.0264  0.3788
   50ACTN    H3  500   6.899   7.170   3.935 -1.3039  1.0860 -0.1752
   51ACTN    H6  501   2.847   2.207   4.947  2.7613 -1.7072 -2.5374
   51ACTN    C3  502   2.773   2.178   4.874 -0.2257 -0.4244 -0.1268
   51ACTN    H4  503   2.679   2.219   4.912  0.5819  0.7147  0.6706
   51ACTN    H5  504   2.788   2.232   4.781 -2.3800  0.5204  0.0280
   51ACTN    C2  505   2.781   2.029   4.861  0.7576 -0.2927 -0.7302
   51ACTN    O1  506   2.880   1.969   4.830  0.0058 -0.1019  0.3860
   51ACTN    C1  507   2.654   1.955   4.877 -0.0826  0.0698 -0.0975
   51ACTN    H1  508   2.609   1.990   4.970  2.3231  1.2155  0.6640
   51ACTN    H2  509   2.678   1.849   4.885  1.5460  0.4323 -0.1242
   51ACTN    H3  510   2.582   1.956   4.795 -1.1705 -0.9771  0.8312
   52ACTN    H6  511   1.294   5.517   2.994 -0.2246 -0.1181 -1.1885
   52ACTN    C3  512   1.348   5.437   2.944  0.8385 -0.1588 -0.0083
   52ACTN    H4  513   1.386   5.359   3.010 -0.0906  1.0850  2.0242
   52ACTN    H5  514   1.274   5.396   2.875  1.1814 -1.1521  0.1965
   52ACTN    C2  515   1.471   5.487   2.873  0.9153  0.3787  0.0868
   52ACTN    O1  516   1.569   5.417   2.848 -0.1913 -0.1267 -0.1881
   52ACTN    C1  517   1.451   5.620   2.804 -0.0127 -0.0042  0.6394
   52ACTN    H1  518   1.347   5.652   2.799  0.4860  1.3397 -1.7732
   52ACTN    H2  519   1.489   5.608   2.702 -1.5332 -0.6651  0.1381
   52ACTN    H3  520   1.500   5.703   2.854  1.5975 -0.1705 -0.6069
   53ACTN    H6  521   2.826   6.770   6.026  3.4917  3.2922  0.5969
   53ACTN    C3  522   2.883   6.718   5.949  0.2429 -0.3330  0.4829
   53ACTN    H4  523   2.991   6.730   5.954  0.2748 -0.0981 -0.6245
   53ACTN    H5  524   2.868   6.613   5.975  1.3794 -0.8409 -0.8470
   53ACTN    C2  525   2.814   6.722   5.815  0.6280 -0.4288  0.0057
   53ACTN    O1  526   2.875   6.703   5.713  0.2692 -0.0726  0.1330
   53ACTN    C1  527   2.668   6.719   5.828 -0.4358  0.3193 -0.1478
   53ACTN    H1  528   2.628   6.737   5.927 -1.8454  1.9555 -1.0012
   53ACTN    H2  529   2.651   6.612   5.816 -1.3078  0.4855 -0.4213
   53ACTN    H3  530   2.615   6.774   5.751 -0.4957  0.0717 -0.2848
   54ACTN    H6  531   0.904   7.039   2.081 -0.1208 -0.0510 -0.3108
   54ACTN    C3  532   0.930   6.960   2.011  0.7533  0.3672 -0.4695
   54ACTN    H4  533   0.835   6.919   1.975 -0.7147  0.5488  3.0468
   54ACTN    H5  534   0.978   7.005   1.923 -0.3068  1.8801 -0.2978
   54ACTN    C2  535   1.011   6.846   2.063  0.0046  0.9673  0.2101
   54ACTN    O1  536   1.076   6.768   1.991  0.1413 -0.0791  0.0074
   54ACTN    C1  537   1.031   6.841   2.209 -0.5743  0.1966 -0.6111
   54ACTN    H1  538   0.992   6.935   2.248 -0.1265  1.8068 -3.8422
   54ACTN    H2  539   1.137   6.828   2.231 -1.1695 -1.1797  1.6139
   54ACTN    H3  540   0.968   6.760   2.245 -1.4475  1.2417  0.2530
   55ACTN    H6  541   1.912   1.743   6.150 -0.2728 -2.0628  1.1449
   55ACTN    C3  542   1.896   1.699   6.051 -0.2659 -0.1840  0.2789
   55ACTN    H4  543   1.967   1.733   5.975  0.0147 -1.3012  0.0213
   55ACTN    H5  544   1.922   1.594   6.066  0.0946  0.0769  1.5979
   55ACTN    C2  545   1.754   1.729   6.003  0.3751  0.0557  0.1027
   55ACTN    O1  546   1.684   1.654   5.931  0.3786 -0.1042  0.2782
   55ACTN    C1  547   1.697   1.857   6.057 -0.4242 -0.2988  0.1801
   55ACTN    H1  548   1.768   1.904   6.124  1.6557 -0.5570 -1.7601
   55ACTN    H2  549   1.604   1.840   6.112 -0.4636  0.1090  0.2373
   55ACTN    H3  550   1.674   1.924   5.974  0.4846 -1.2270 -0.8383
   56ACTN    H6  551   6.326   2.849   1.647  1.2044  1.2125 -0.7945
   56ACTN    C3  552   6.362   2.890   1.741  0.4799  0.1916 -0.0530
   56ACTN    H4  553   6.395   2.811   1.808 -0.1338 -0.8308 -0.9498
   56ACTN    H5  554   6.458   2.939   1.720  1.4689 -2.1445 -1.1923
   56ACTN    C2  555   6.265   2.977   1.808  0.1439 -0.4009 -0.5348
   56ACTN    O1  556   6.211   2.939   1.913  0.2606 -0.4411 -0.0448
   56ACTN    C1  557   6.244   3.126   1.764  0.0233 -0.3423  0.3792
   56ACTN    H1  558   6.328   3.187   1.796  1.6336 -1.7745 -1.0127
   56ACTN    H2  559   6.157   3.164   1.818 -0.2897 -0.0365 -0.3191
   56ACTN    H3  560   6.229   3.133   1.656  1.8748  0.8920  0.1931
   57ACTN    H6  561   6.975   1.273   3.571 -0.5020 -1.3178  0.4296
   57ACTN    C3  562   6.890   1.335   3.546  0.7250  0.1474 -0.1855
   57ACTN    H4  563   6.825   1.337   3.633  1.5876 -0.6727  0.4876
   57ACTN    H5  564   6.928   1.437   3.536  1.4337 -0.1556 -0.6270
   57ACTN    C2  565   6.812   1.303   3.420  0.2286  0.0322  0.7273
   57ACTN    O1  566   6.856   1.205   3.358  0.6961 -0.1126 -0.2002
   57ACTN    C1  567   6.692   1.378   3.379  0.0797 -0.3708  0.2375
   57ACTN    H1  568   6.705   1.482   3.409  0.8750 -0.3480 -0.1909
   57ACTN    H2  569   6.599   1.340   3.423 -0.6174  0.6114 -0.3703
   57ACTN    H3  570   6.680   1.389   3.271 -3.2843  3.8164  0.9301
   58ACTN    H6  571   2.791   0.972   0.497  0.1914 -2.7828  0.3914
   58ACTN    C3  572   2.714   0.959   0.420  0.1551  0.0627 -0.1089
   58ACTN    H4  573   2.768   0.928   0.330 -0.1768  2.7461 -1.2581
   58ACTN    H5  574   2.662   1.053   0.407 -0.6478 -0.3624  0.0268
   58ACTN    C2  575   2.611   0.856   0.458  0.4470 -0.1593  0.3532
   58ACTN    O1  576   2.514   0.839   0.384 -0.1249  0.7135 -0.3607
   58ACTN    C1  577   2.628   0.782   0.589  0.1797  0.1264 -0.1266
   58ACTN    H1  578   2.729   0.742   0.587 -0.2295 -0.9041 -1.0931
   58ACTN    H2  579   2.559   0.698   0.602  0.5144 -0.3320 -1.2581
   58ACTN    H3  580   2.617   0.856   0.669  1.9197  0.0320  0.2173
   59ACTN    H6  581   4.128   4.551   6.985  0.9823  2.9307 -1.3382
   59ACTN    C3  582   4.179   4.491   6.910  0.0213  0.0755  0.1932
   59ACTN    H4  583   4.285   4.516   6.909 -0.3609  1.8002  0.1410
   59ACTN    H5  584   4.174   4.383   6.922  2.4951 -0.2911 -1.5629
   59ACTN    C2  585   4.118   4.535   6.786  0.0417  0.4593  0.5944
   59ACTN    O1  586   4.024   4.473   6.737  0.5390 -0.0502 -0.2505
   59ACTN    C1  587   4.153   4.662   6.716 -0.0940  0.0075  0.3674
   59ACTN    H1  588   4.090   4.668   6.627  2.1093 -1.0167 -1.2914
   59ACTN    H2  589   4.258   4.679   6.690 -0.3254 -0.0464 -0.6432
   59ACTN    H3  590   4.130   4.748   6.780 -0.4097 -0.1665  0.4855
   60ACTN    H6  591   0.430   2.250   4.900  1.4886  0.6800 -0.3187
   60ACTN    C3  592   0.370   2.303   4.827  0.6037  0.3870  0.1862
   60ACTN    H4  593   0.291   2.352   4.883  0.5007 -1.6085  1.8257
   60ACTN    H5  594   0.431   2.384   4.787  1.3681 -0.0739  0.3952
   60ACTN    C2  595   0.309   2.223   4.724 -0.1372 -0.5217  0.0135
   60ACTN    O1  596   0.269   2.280   4.623 -0.5536  0.1640 -0.0989
   60ACTN    C1  597   0.268   2.087   4.763 -0.0433 -0.0482 -0.6813
   60ACTN    H1  598   0.202   2.101   4.849  1.9632  3.0551  0.4203
   60ACTN    H2  599   0.356   2.027   4.785  0.6022  1.2234  0.2545
   60ACTN    H3  600   0.217   2.030   4.686 -1.4365  0.1571  0.0637
   61ACTN    H6  601   1.527   1.326   5.319  1.2021  0.2124  2.1201
   61ACTN    C3  602   1.541   1.218   5.315  0.0206  0.0981  0.5930
   61ACTN    H4  603   1.609   1.187   5.394  0.7983 -1.3090 -0.6081
   61ACTN    H5  604   1.592   1.204   5.220  2.2346  0.9903  1.6018
   61ACTN    C2  605   1.403   1.154   5.327  0.0461  0.5254 -0.3340
   61ACTN    O1  606   1.342   1.165   5.435 -0.8348  0.3642  0.1232
   61ACTN    C1  607   1.340   1.077   5.211 -0.0966  0.4990 -0.4173
   61ACTN    H1  608   1.247   1.125   5.180 -1.8335 -2.2387  0.3582
   61ACTN    H2  609   1.315   0.976   5.242 -0.0959  0.8990  0.8808
   61ACTN    H3  610   1.413   1.069   5.130  3.1536  0.0061  2.4355
   62ACTN    H6  611   1.454   6.229   2.777 -2.2578 -0.3444  0.7079
   62ACTN    C3  612   1.470   6.150   2.705 -0.2703  0.0792  0.6540
   62ACTN    H4  613   1.494   6.192   2.607  0.7762 -2.3156 -0.1787
   62ACTN    H5  614   1.555   6.091   2.738  0.6533  0.7706 -0.4532
   62ACTN    C2  615   1.356   6.062   2.709  0.5516  0.2317 -0.1518
   62ACTN    O1  616   1.350   5.963   2.637  0.2099 -0.2295  0.3491
   62ACTN    C1  617   1.251   6.086   2.813 -0.3044 -0.7434 -0.3874
   62ACTN    H1  618   1.238   5.999   2.877  0.9845 -2.7423 -2.7608
   62ACTN    H2  619   1.159   6.117   2.764  0.1897  0.8964 -0.3101
   62ACTN    H3  620   1.273   6.169   2.881 -1.3398  0.0542 -1.0086
   63ACTN    H6  621   3.241   6.421   2.405 -0.2980 -0.8161 -1.4361
   63ACTN    C3  622   3.316   6.493   2.372 -0.2522 -0.2452 -0.1419
   63ACTN    H4  623   3.412   6.442   2.380  0.0033  0.3466  0.6327
   63ACTN    H5  624   3.291   6.509   2.267  3.0167 -0.0636 -0.9355
   63ACTN    C2  625   3.297   6.612   2.458  0.5336 -0.4945 -0.1395
   63ACTN    O1  626   3.357   6.622   2.565  0.2949 -0.2289  0.7338
   63ACTN    C1  627   3.190   6.713   2.429  0.0841 -0.1844 -0.0210
   63ACTN    H1  628   3.231   6.787   2.360  1.4808 -0.4549  0.4923
   63ACTN    H2  629   3.143   6.761   2.515 -2.1854 -1.0621 -0.7588
   63ACTN    H3  630   3.109   6.671   2.371 -1.0507  1.1300  0.5685
   64ACTN    H6  631   2.264   2.393   0.844  0.3499 -1.2838  0.5273
   64ACTN    C3  632   2.202   2.404   0.933 -0.3934  0.2392 -0.1792
   64ACTN    H4  633   2.268   2.399   1.019  1.9534 -0.3610 -1.9710
   64ACTN    H5  634   2.151   2.500   0.942 -0.4862  0.0709  1.1433
   64ACTN    C2  635   2.102   2.292   0.933  0.2953  0.1733  0.6326
   64ACTN    O1  636   2.138   2.177   0.967  0.0824 -0.4480 -0.1533
   64ACTN    C1  637   1.956   2.320   0.916  0.2800  0.1569  0.2256
   64ACTN    H1  638   1.924   2.384   0.998 -1.0416 -0.3887  0.1480
   64ACTN    H2  639   1.901   2.226   0.907  0.2370  0.1473  0.5813
   64ACTN    H3  640   1.932   2.371   0.822  1.1500 -0.5552 -0.3909
   65ACTN    H6  641   1.722   6.136   5.341 -0.6368  0.3308 -1.0442
   65ACTN    C3  642   1.811   6.196   5.358 -0.3587 -0.2751 -0.3625
   65ACTN    H4  643   1.868   6.149   5.439 -0.8738 -2.1322 -1.0449
   65ACTN    H5  644   1.878   6.191   5.272  1.2769  0.3451  0.8424
   65ACTN    C2  645   1.771   6.327   5.394  0.4289  0.7119  0.3444
   65ACTN    O1  646   1.654   6.365   5.399  0.2893  0.1141 -0.0016
   65ACTN    C1  647   1.868   6.429   5.432  0.9623  0.5279  0.4546
   65ACTN    H1  648   1.899   6.464   5.334  0.9140 -0.6120  0.0268
   65ACTN    H2  649   1.950   6.397   5.497  0.3856  2.4264  2.1875
   65ACTN    H3  650   1.823   6.506   5.495  1.1999  0.5477  0.6044
   66ACTN    H6  651   3.505   3.853   3.773  0.1619 -0.1820 -0.5860
   66ACTN    C3  652   3.612   3.857   3.793  0.1897 -0.8405 -0.6055
   66ACTN    H4  653   3.627   3.959   3.826 -0.8269 -0.4812 -1.2577
   66ACTN    H5  654   3.633   3.787   3.874  0.1101 -0.6606 -0.4309
   66ACTN    C2  655   3.689   3.833   3.664 -0.0338  0.3055  0.2740
   66ACTN    O1  656   3.688   3.914   3.567  0.7521  0.2185 -0.9769
   66ACTN    C1  657   3.785   3.719   3.648 -0.6700 -0.1372  0.0442
   66ACTN    H1  658   3.739   3.649   3.578  1.1759  0.4771 -1.8276
   66ACTN    H2  659   3.799   3.657   3.737  1.5920  1.1536  0.6156
   66ACTN    H3  660   3.883   3.753   3.616 -0.3640 -1.5865 -0.5870
   67ACTN    H6  661   1.751   7.244   4.681 -2.0503 -0.3270 -1.1420
   67ACTN    C3  662   1.787   7.159   4.622 -0.2416 -0.2138 -0.2662
   67ACTN    H4  663   1.699   7.101   4.594 -2.9918  2.8445  1.5238
   67ACTN    H5  664   1.835   7.201   4.533 -0.6523 -3.2707 -1.9917
   67ACTN    C2  665   1.876   7.059   4.689 -0.0557  0.5688 -0.9024
   67ACTN    O1  666   1.925   6.968   4.628  0.7375  0.4113  0.4458
   67ACTN    C1  667   1.889   7.070   4.839 -0.3800  0.2132  0.3330
   67ACTN    H1  668   1.840   6.988   4.890 -0.0666  1.1491  2.1836
   67ACTN    H2  669   1.845   7.160   4.882  1.9173  0.6007  1.9807
   67ACTN    H3  670   1.994   7.067   4.866 -0.2269 -0.5554 -0.3169
   68ACTN    H6  671   6.095   2.594   0.869 -0.7277 -0.6807 -0.1911
   68ACTN    C3  672   6.077   2.698   0.843 -0.0014 -0.6226 -0.4818
   68ACTN    H4  673   6.047   2.704   0.738  1.8239  2.8054 -0.9085
   68ACTN    H5  674   6.000   2.743   0.906  2.3275 -0.7018  2.5196
   68ACTN    C2  675   6.201   2.792   0.857  0.2524 -0.1838  0.5059
   68ACTN    O1  676   6.256   2.842   0.760  0.2307  0.2608  0.0408
   68ACTN    C1  677   6.253   2.805   0.999 -0.2915  0.8241  0.0061
   68ACTN    H1  678   6.206   2.730   1.062 -0.0624 -0.3493 -1.2176
   68ACTN    H2  679   6.222   2.904   1.035 -0.0190  0.6234  0.7850
   68ACTN    H3  680   6.361   2.806   1.008 -0.4597  1.2835  2.2538
   69ACTN    H6  681   2.973   3.475   4.069 -0.2542 -0.1826 -2.2606
   69ACTN    C3  682   3.064   3.523   4.033  0.2902 -0.0336 -0.7101
   69ACTN    H4  683   3.143   3.522   4.108  1.0222 -0.6213 -1.4709
   69ACTN    H5  684   3.100   3.453   3.958 -1.4237  0.4007 -1.9621
   69ACTN    C2  685   3.040   3.658   3.979  0.0934  0.0007 -0.3246
   69ACTN    O1  686   3.030   3.685   3.862 -0.3018  0.0618 -0.0841
   69ACTN    C1  687   3.006   3.768   4.075 -0.2886 -0.4636  0.0415
   69ACTN    H1  688   3.049   3.762   4.175  2.7211  4.2370 -0.7849
   69ACTN    H2  689   2.898   3.775   4.085 -0.1560  1.1725  0.4774
   69ACTN    H3  690   3.037   3.865   4.036  4.2549 -2.3559 -1.4324
   70ACTN    H6  691   4.049   5.971   3.954  0.4872 -0.6496 -1.2941
   70ACTN    C3  692   4.048   5.868   3.989 -0.1484  0.0083  0.6980
   70ACTN    H4  693   4.013   5.801   3.911 -0.6296  2.5191 -1.3092
   70ACTN    H5  694   4.149   5.839   4.018 -1.2391 -3.1406  1.5421
   70ACTN    C2  695   3.951   5.862   4.103 -1.0033  0.0987  0.0448
   70ACTN    O1  696   3.851   5.802   4.095 -0.2908  0.0591  0.5169
   70ACTN    C1  697   3.973   5.955   4.217  0.0940  0.5090  0.7813
   70ACTN    H1  698   3.899   5.948   4.297 -0.0436  0.3545  0.6385
   70ACTN    H2  699   3.962   6.057   4.181 -1.6396 -0.5972 -1.9495
   70ACTN    H3  700   4.075   5.940   4.253  0.8498 -0.3847 -1.6597
   71ACTN    H6  701   5.477   2.890   6.274 -0.3366 -1.1873 -0.6994
   71ACTN    C3  702   5.567   2.842   6.238  0.3794 -0.0973 -0.3653
   71ACTN    H4  703   5.643   2.886   6.303 -0.6653  0.2141  0.6458
   71ACTN    H5  704   5.587   2.861   6.132 -0.1388  0.0083 -0.4442
   71ACTN    C2  705   5.555   2.693   6.255  0.1155 -0.2023 -0.9614
   71ACTN    O1  706   5.463   2.636   6.207  0.7472  0.6665  0.6258
   71ACTN    C1  707   5.650   2.624   6.353  0.0962  0.0452  0.4616
   71ACTN    H1  708   5.585   2.577   6.426  0.1752 -0.4729  0.1988
   71ACTN    H2  709   5.702   2.697   6.415  1.7959  0.7869 -1.7630
   71ACTN    H3  710   5.722   2.554   6.310  0.8004 -1.6714  4.2397
   72ACTN    H6  711   4.029   1.190   1.476 -0.4572  0.5767 -0.2385
   72ACTN    C3  712   3.939   1.232   1.431 -0.1021  0.2152 -1.3089
   72ACTN    H4  713   3.955   1.236   1.323  2.1862 -0.0240 -0.9970
   72ACTN    H5  714   3.861   1.158   1.450 -0.8453  1.4403  0.6618
   72ACTN    C2  715   3.907   1.363   1.489  0.1820 -0.1712 -0.1080
   72ACTN    O1  716   3.806   1.373   1.559  0.3195  0.4721  0.9105
   72ACTN    C1  717   3.994   1.484   1.453  0.2907 -0.1950  0.3731
   72ACTN    H1  718   3.947   1.523   1.363 -0.0041 -0.0376  0.5960
   72ACTN    H2  719   4.099   1.460   1.433 -0.0821 -0.5889 -1.1546
   72ACTN    H3  720   3.982   1.565   1.526  1.5232  1.1731 -0.8966
   73ACTN    H6  721   6.697   4.279   6.106  0.1713 -0.9445  1.1662
   73ACTN    C3  722   6.624   4.199   6.114 -0.9030 -0.0066  0.8143
   73ACTN    H4  723   6.639   4.140   6.023  0.9118  0.2159  0.9549
   73ACTN    H5  724   6.640   4.142   6.205 -1.4188  0.6697  1.3356
   73ACTN    C2  725   6.482   4.253   6.104 -0.2016  0.0006 -0.5830
   73ACTN    O1  726   6.455   4.345   6.026  0.1537 -0.0773 -0.5973
   73ACTN    C1  727   6.368   4.192   6.177  0.2560 -0.0758  0.4766
   73ACTN    H1  728   6.274   4.221   6.131  0.9115 -1.7395 -2.0486
   73ACTN    H2  729   6.367   4.218   6.283 -2.8292  2.4223 -0.0917
   73ACTN    H3  730   6.374   4.084   6.168 -2.2024 -0.4860  3.2337
   74ACTN    H6  731   6.598   0.406   6.706 -3.7156 -0.8998  1.0138
   74ACTN    C3  732   6.625   0.373   6.806  0.3925  0.0730  0.3213
   74ACTN    H4  733   6.718   0.318   6.794 -0.2000 -1.4674  2.4829
   74ACTN    H5  734   6.653   0.463   6.862  1.5531  0.3998 -0.7694
   74ACTN    C2  735   6.521   0.292   6.876  0.8801 -0.9192 -0.0565
   74ACTN    O1  736   6.403   0.301   6.837 -0.3804 -0.0293 -0.1495
   74ACTN    C1  737   6.555   0.216   7.001  0.3822 -0.0479 -0.1725
   74ACTN    H1  738   6.464   0.201   7.060  0.2157 -0.2046 -0.4685
   74ACTN    H2  739   6.616   0.279   7.066 -1.2703  0.1755  1.1893
   74ACTN    H3  740   6.610   0.124   6.982 -1.3598 -1.0506 -0.4643
   75ACTN    H6  741   2.858   5.573   6.913 -0.8763  1.6802  0.4297
   75ACTN    C3  742   2.893   5.604   7.011  0.4018  0.1141  0.5049
   75ACTN    H4  743   2.917   5.711   7.010 -1.1759  0.4976  1.1189
   75ACTN    H5  744   2.804   5.595   7.074 -0.1241 -1.2839 -0.4248
   75ACTN    C2  745   3.006   5.513   7.051 -0.4045 -0.2891  0.2703
   75ACTN    O1  746   2.993   5.417   7.125 -0.3645 -1.0431  0.0561
   75ACTN    C1  747   3.121   5.495   6.956  0.3018 -0.0115 -0.5429
   75ACTN    H1  748   3.122   5.560   6.868 -2.2190 -2.1123 -2.2169
   75ACTN    H2  749   3.119   5.393   6.915 -0.3945  0.1855 -1.0095
   75ACTN    H3  750   3.217   5.507   7.006  0.1443  0.2508 -0.3031
   76ACTN    H6  751   6.829   6.583   4.011 -1.2970  0.3908 -1.1664
   76ACTN    C3  752   6.875   6.664   3.955  0.5245 -0.0306 -0.3283
   76ACTN    H4  753   6.814   6.754   3.961 -1.0765 -1.1500  0.2194
   76ACTN    H5  754   6.972   6.686   4.000 -0.7727  0.6477  2.2267
   76ACTN    C2  755   6.883   6.641   3.808  0.1652  0.3391  0.1015
   76ACTN    O1  756   6.983   6.591   3.768  0.6032 -0.8985 -0.4801
   76ACTN    C1  757   6.772   6.668   3.717  0.5769  0.6092  0.0816
   76ACTN    H1  758   6.805   6.635   3.618  4.4052  0.3381  1.3721
   76ACTN    H2  759   6.738   6.771   3.706 -2.8319 -0.4575  0.1696
   76ACTN    H3  760   6.684   6.613   3.749  1.7702 -1.1043  0.4970
   77ACTN    H6  761   2.004   5.938   6.841 -0.0230 -2.0474 -0.4109
   77ACTN    C3  762   2.058   5.920   6.933  0.1506  0.0235 -0.0893
   77ACTN    H4  763   2.089   6.015   6.976 -1.3183  1.3798 -1.9883
   77ACTN    H5  764   1.989   5.877   7.006 -0.1680  1.9115  0.7387
   77ACTN    C2  765   2.186   5.832   6.917  0.3015 -0.2275 -0.3768
   77ACTN    O1  766   2.298   5.868   6.941 -0.0936  0.1109 -0.9293
   77ACTN    C1  767   2.172   5.697   6.850 -0.6585  0.2244 -0.3285
   77ACTN    H1  768   2.072   5.658   6.870 -0.4334 -0.3458 -0.3345
   77ACTN    H2  769   2.243   5.635   6.905  0.9408 -0.2258 -2.8557
   77ACTN    H3  770   2.200   5.705   6.745 -1.2485 -0.8138 -0.5706
   78ACTN    H6  771   6.544   7.244   4.518  1.8901 -2.5014 -2.6021
   78ACTN    C3  772   6.647   7.249   4.555  0.6732  0.0438  0.7034
   78ACTN    H4  773   6.655   7.184   4.642  1.0210 -0.9705 -0.0688
   78ACTN    H5  774   6.722   7.215   4.484 -0.6126 -1.1232 -0.1319
   78ACTN    C2  775   6.667   7.394   4.589  0.0221  0.3995  0.9673
   78ACTN    O1  776   6.622   7.478   4.511 -0.4371 -0.4647  0.5196
   78ACTN    C1  777   6.710   7.450   4.719 -0.1197 -0.0493 -0.1081
   78ACTN    H1  778   6.640   7.524   4.759 -0.8931 -1.1875  0.7083
   78ACTN    H2  779   6.806   7.495   4.695 -1.4178  3.2176  0.5148
   78ACTN    H3  780   6.722   7.373   4.795  3.8060  0.6079  0.0552
   79ACTN    H6  781   7.309   6.793   3.096  1.4587 -0.6217 -0.7270
   79ACTN    C3  782   7.355   6.803   3.194 -0.3863 -0.2002  0.1170
   79ACTN    H4  783   7.348   6.906   3.230  0.1417 -0.5168  1.1453
   79ACTN    H5  784   7.299   6.738   3.261 -0.7794  0.4109  0.3879
   79ACTN    C2  785   7.495   6.770   3.174 -0.1026 -0.2549 -0.4355
   79ACTN    O1  786   7.562   6.848   3.111 -0.1866  0.2365  0.3041
   79ACTN    C1  787   7.562   6.671   3.257 -0.1319  1.1501  0.2094
   79ACTN    H1  788   7.490   6.616   3.318 -0.8273  3.6351  1.7005
   79ACTN    H2  789   7.636   6.726   3.315  0.2119 -0.9066  1.7975
   79ACTN    H3  790   7.621   6.596   3.204  0.4416  2.4199 -0.9741
   80ACTN    H6  791   6.755   1.537   6.627  0.1936  0.7602  0.3755
   80ACTN    C3  792   6.843   1.557   6.688  0.2669 -0.2794  0.6179
   80ACTN    H4  793   6.851   1.479   6.763  1.1888 -1.4751 -0.7121
   80ACTN    H5  794   6.926   1.547   6.619 -0.0777  2.9384 -0.3926
   80ACTN    C2  795   6.843   1.693   6.746  0.0180  0.8651 -0.3456
   80ACTN    O1  796   6.934   1.741   6.808  0.2063  0.3480 -0.5159
   80ACTN    C1  797   6.708   1.758   6.738  0.3859  0.1432 -0.5279
   80ACTN    H1  798   6.639   1.682   6.773 -0.6257  2.4054  2.6070
   80ACTN    H2  799   6.684   1.786   6.635 -0.7955 -2.1656 -0.9011
   80ACTN    H3  800   6.703   1.844   6.805 -0.7192 -0.4354  0.1390
   81ACTN    H6  801   3.030   5.652   4.217 -2.4704 -1.0544 -0.7673
   81ACTN    C3  802   3.076   5.621   4.123 -0.3370 -0.3580  0.0064
   81ACTN    H4  803   3.143   5.539   4.148  1.4830  1.6063  1.7648
   81ACTN    H5  804   2.998   5.585   4.055 -0.4971 -1.5681  0.8189
   81ACTN    C2  805   3.152   5.724   4.056 -0.3087  0.0305  0.4127
   81ACTN    O1  806   3.204   5.706   3.950 -0.2505 -0.0489 -0.2016
   81ACTN    C1  807   3.145   5.867   4.097  0.1492 -0.8357  0.3193
   81ACTN    H1  808   3.093   5.884   4.192  1.7064 -2.1014  1.4224
   81ACTN    H2  809   3.090   5.925   4.023 -1.0619 -1.2177  0.9038
   81ACTN    H3  810   3.245   5.910   4.105 -0.9994  2.4533 -1.8330
   82ACTN    H6  811   1.153   6.556   2.382 -0.9786  0.0144 -0.1223
   82ACTN    C3  812   1.191   6.602   2.474 -0.6144  0.0460 -0.2884
   82ACTN    H4  813   1.282   6.550   2.505 -0.9749 -1.1344 -1.1497
   82ACTN    H5  814   1.223   6.701   2.442  1.5196 -0.3879  0.4422
   82ACTN    C2  815   1.097   6.603   2.588 -0.3553 -0.2081  0.3313
   82ACTN    O1  816   1.036   6.705   2.606  0.4081  0.2870 -0.6352
   82ACTN    C1  817   1.061   6.471   2.655 -0.3814 -0.6081  0.2257
   82ACTN    H1  818   1.011   6.412   2.577  0.0142  2.0059 -2.0834
   82ACTN    H2  819   0.985   6.499   2.728  0.3300  1.4681  0.2098
   82ACTN    H3  820   1.152   6.437   2.703  2.2164 -0.3316 -4.2430
   83ACTN    H6  821   7.252   5.995   5.673  0.0142  1.0603 -0.6499
   83ACTN    C3  822   7.328   5.977   5.749  0.0730 -0.1019 -0.9654
   83ACTN    H4  823   7.294   5.892   5.808  0.8891 -0.4634 -1.0094
   83ACTN    H5  824   7.418   5.956   5.690  0.3461 -0.9482 -0.2489
   83ACTN    C2  825   7.339   6.092   5.842  0.0838  0.0683 -0.0860
   83ACTN    O1  826   7.263   6.188   5.832  0.3116  0.1597 -0.3865
   83ACTN    C1  827   7.450   6.079   5.947 -0.0691 -0.4318  0.0889
   83ACTN    H1  828   7.544   6.093   5.893  0.3795 -0.5071  0.8470
   83ACTN    H2  829   7.451   5.979   5.990  0.5303 -1.2702 -1.8384
   83ACTN    H3  830   7.439   6.149   6.030  2.2974 -0.8608  0.8102
   84ACTN    H6  831   3.037   3.176   5.156 -0.0001 -0.2083  1.0827
   84ACTN    C3  832   2.994   3.078   5.133 -0.5892  0.4185 -0.5006
   84ACTN    H4  833   3.008   3.070   5.025 -0.1069  1.5172 -0.5300
   84ACTN    H5  834   3.060   3.004   5.177 -1.7820 -0.7630 -0.6818
   84ACTN    C2  835   2.846   3.065   5.165  0.7657  0.0304 -0.2442
   84ACTN    O1  836   2.769   3.141   5.103 -0.8105  0.4136 -0.4197
   84ACTN    C1  837   2.809   3.019   5.306  0.1594  0.0110 -0.0359
   84ACTN    H1  838   2.801   3.101   5.377 -2.6885 -0.2054 -0.0567
   84ACTN    H2  839   2.883   2.947   5.341 -1.3437 -1.4717  0.1479
   84ACTN    H3  840   2.717   2.962   5.297 -0.5245  1.4131 -2.3037
   85ACTN    H6  841   6.035   4.462   1.351 -0.4154  0.1133  0.4153
   85ACTN    C3  842   5.972   4.401   1.416 -0.2152 -0.1227  0.3897
   85ACTN    H4  843   5.870   4.426   1.385  0.2587  1.1237 -0.2070
   85ACTN    H5  844   5.998   4.302   1.381  1.5293  0.0525  1.1628
   85ACTN    C2  845   5.993   4.432   1.564  0.8423  0.3058  0.8284
   85ACTN    O1  846   6.017   4.344   1.641 -0.0983  0.2409  0.1819
   85ACTN    C1  847   5.972   4.573   1.613  0.3266  0.0050  0.6574
   85ACTN    H1  848   5.932   4.575   1.714  2.7028  0.7520  1.6147
   85ACTN    H2  849   5.910   4.639   1.552 -0.9481 -2.2294 -0.5537
   85ACTN    H3  850   6.070   4.620   1.623  0.4076 -0.0178  0.0077
   86ACTN    H6  851   2.807   6.969   4.488  1.3720  0.5861  0.2468
   86ACTN    C3  852   2.808   6.894   4.409  0.0332  0.6310  0.1724
   86ACTN    H4  853   2.825   6.943   4.313 -1.6485  0.0198 -0.4652
   86ACTN    H5  854   2.897   6.836   4.431 -0.2278  0.5397  1.0308
   86ACTN    C2  855   2.683   6.805   4.418  0.3298  0.2204  0.0254
   86ACTN    O1  856   2.635   6.773   4.309 -0.3669  0.6518 -0.2717
   86ACTN    C1  857   2.620   6.780   4.549  0.9099 -0.0674 -0.1228
   86ACTN    H1  858   2.653   6.860   4.616  1.5792 -0.8847  0.5344
   86ACTN    H2  859   2.647   6.682   4.589 -1.5674  0.1284  2.1634
   86ACTN    H3  860   2.513   6.782   4.528  0.4751 -0.4005  1.9470
   87ACTN    H6  861   1.242   5.437   4.368  0.1496 -2.0708  0.6016
   87ACTN    C3  862   1.303   5.403   4.284  0.0441 -0.4625 -0.1442
   87ACTN    H4  863   1.404   5.382   4.319  0.5224 -0.3806 -1.4715
   87ACTN    H5  864   1.252   5.318   4.239 -2.1008  1.4437 -1.4646
   87ACTN    C2  865   1.307   5.512   4.188  0.0485 -0.4428  0.3316
   87ACTN    O1  866   1.199   5.539   4.127  0.1278 -0.1907 -0.0289
   87ACTN    C1  867   1.430   5.587   4.171 -0.3152  0.1006  0.4295
   87ACTN    H1  868   1.478   5.597   4.269  0.6093 -0.8756  0.0869
   87ACTN    H2  869   1.411   5.685   4.126 -0.6418 -0.6746 -1.1379
   87ACTN    H3  870   1.498   5.542   4.099 -0.0467  3.8205 -1.7582
   88ACTN    H6  871   4.729   2.114   6.400 -0.7577  0.0675  0.1369
   88ACTN    C3  872   4.782   2.019   6.404 -0.1909  0.3783  0.2140
   88ACTN    H4  873   4.711   1.937   6.412  0.9385 -0.6727 -0.3741
   88ACTN    H5  874   4.835   1.998   6.311  2.0477  1.1754  1.2908
   88ACTN    C2  875   4.878   2.009   6.514  0.8181  0.0508 -0.7148
   88ACTN    O1  876   4.860   1.928   6.605 -0.1413 -0.6339  0.2605
   88ACTN    C1  877   4.998   2.097   6.519  0.1969 -0.6391  0.0988
   88ACTN    H1  878   5.045   2.095   6.617  0.4618 -3.2775 -0.0406
   88ACTN    H2  879   4.968   2.200   6.496  0.9875 -0.5417 -0.5274
   88ACTN    H3  880   5.073   2.074   6.443 -0.1484  2.0384 -1.1123
   89ACTN    H6  881   4.174   1.529   5.079 -2.0641 -0.2394  2.3677
   89ACTN    C3  882   4.115   1.607   5.031  0.0465  0.2405  0.4877
   89ACTN    H4  883   4.066   1.560   4.946  1.4706 -3.1937  1.4926
   89ACTN    H5  884   4.044   1.644   5.105 -2.0916 -0.5836 -1.0900
   89ACTN    C2  885   4.204   1.719   4.993  0.2414  0.0467 -0.7532
   89ACTN    O1  886   4.213   1.748   4.875  0.4426  0.0673 -0.2522
   89ACTN    C1  887   4.283   1.793   5.092  0.6659  0.2208 -0.2367
   89ACTN    H1  888   4.386   1.758   5.088  0.9476  1.1485 -2.0723
   89ACTN    H2  889   4.245   1.763   5.189  1.1862 -0.7799 -0.3412
   89ACTN    H3  890   4.277   1.901   5.078 -0.2459 -0.1922 -3.4564
   90ACTN    H6  891   1.092   2.408   2.125  0.1043 -0.1185 -0.5312
   90ACTN    C3  892   1.009   2.352   2.167 -0.0086  0.4433 -0.0030
   90ACTN    H4  893   1.009   2.252   2.125 -0.1694  1.1174 -1.6437
   90ACTN    H5  894   1.016   2.347   2.276 -2.8558 -0.4033  0.1946
   90ACTN    C2  895   0.882   2.420   2.124  0.0383 -0.2682  0.1261
   90ACTN    O1  896   0.838   2.506   2.199  0.3149  0.0415 -0.1867
   90ACTN    C1  897   0.831   2.409   1.980 -0.6792 -0.0894 -0.3838
   90ACTN    H1  898   0.905   2.398   1.900 -0.3442  0.0757 -0.0967
   90ACTN    H2  899   0.761   2.488   1.952 -0.3877  0.4352  0.3424
   90ACTN    H3  900   0.777   2.315   1.973  0.1348 -0.4582 -2.1561
   91ACTN    H6  901   3.650   4.838   4.809 -0.2297  0.4442  0.0831
   91ACTN    C3  902   3.635   4.933   4.758  0.1855  0.3609 -0.1989
   91ACTN    H4  903   3.652   4.913   4.652  0.5467 -1.1224  0.1316
   91ACTN    H5  904   3.530   4.958   4.772  0.3797  2.1987 -1.7511
   91ACTN    C2  905   3.738   5.039   4.796  0.0961  0.6554 -0.6355
   91ACTN    O1  906   3.824   5.011   4.874  0.1158  0.2981  0.3122
   91ACTN    C1  907   3.736   5.152   4.701  0.1825 -0.7289 -0.9318
   91ACTN    H1  908   3.711   5.239   4.762  1.1000 -0.7721 -0.4940
   91ACTN    H2  909   3.670   5.129   4.617  0.4224  0.1973 -1.3848
   91ACTN    H3  910   3.835   5.169   4.658 -0.0533 -1.2640 -1.7001
   92ACTN    H6  911   2.568   6.622   2.963 -0.8215 -1.6272 -0.3097
   92ACTN    C3  912   2.525   6.648   2.867 -0.5736  0.1311  0.0447
   92ACTN    H4  913   2.606   6.643   2.794  1.5822  1.6485  2.2698
   92ACTN    H5  914   2.453   6.571   2.841  1.2479 -1.2181 -1.1430
   92ACTN    C2  915   2.453   6.781   2.858  0.3393  0.3551 -0.8050
   92ACTN    O1  916   2.503   6.875   2.915 -0.6730 -0.7101 -0.1267
   92ACTN    C1  917   2.317   6.785   2.792  0.0483  0.0553  0.1036
   92ACTN    H1  918   2.270   6.883   2.803 -2.0242 -0.4823 -3.0316
   92ACTN    H2  919   2.249   6.713   2.838  0.9005 -0.7351  0.1314
   92ACTN    H3  920   2.318   6.765   2.685  1.2496  0.3897  0.0536
   93ACTN    H6  921   1.221   0.848   7.200 -1.1021  0.7591  0.8371
   93ACTN    C3  922   1.154   0.763   7.207  0.2801 -0.4008  0.2159
   93ACTN    H4  923   1.071   0.805   7.151 -0.9924 -3.2240 -0.0960
   93ACTN    H5  924   1.202   0.684   7.150 -1.0326 -0.3389 -0.9858
   93ACTN    C2  925   1.127   0.729   7.346 -0.2102 -0.0013  0.0219
   93ACTN    O1  926   1.224   0.716   7.417  0.3457 -0.1078  0.2980
   93ACTN    C1  927   0.996   0.704   7.393 -0.6989  0.1440  0.0401
   93ACTN    H1  928   0.953   0.782   7.455  0.6082 -1.2454  2.8000
   93ACTN    H2  929   1.012   0.613   7.450 -0.9107 -0.9464 -1.6030
   93ACTN    H3  930   0.929   0.675   7.312 -0.7253 -0.5104  0.2980
   94ACTN    H6  931   1.915   5.129   1.678 -0.4237 -0.6571  0.0753
   94ACTN    C3  932   1.823   5.134   1.621  0.1540 -0.0074 -0.8106
   94ACTN    H4  933   1.846   5.147   1.515 -0.9936  1.3653 -0.9102
   94ACTN    H5  934   1.782   5.036   1.647  1.0834  0.3391  2.0841
   94ACTN    C2  935   1.746   5.257   1.667 -0.3560 -0.2154  0.5930
   94ACTN    O1  936   1.757   5.301   1.775 -0.0308  0.3256  0.1614
   94ACTN    C1  937   1.624   5.284   1.584  0.2975 -0.2593  0.8346
   94ACTN    H1  938   1.614   5.392   1.576 -1.5070 -0.3845  1.3004
   94ACTN    H2  939   1.538   5.249   1.641  1.6934 -0.4725  2.8327
   94ACTN    H3  940   1.615   5.236   1.486 -0.7643  0.7176  0.4563
   95ACTN    H6  941   3.618   4.119   1.129  0.0435  0.6868  1.2525
   95ACTN    C3  942   3.528   4.075   1.087  0.8016  0.3829 -0.0702
   95ACTN    H4  943   3.500   4.139   1.004  2.0636 -0.1949 -0.9685
   95ACTN    H5  944   3.454   4.083   1.166 -1.2783  2.3469 -2.1633
   95ACTN    C2  945   3.553   3.930   1.047 -0.7372  0.0045 -0.9543
   95ACTN    O1  946   3.665   3.878   1.065 -0.5879 -0.3052 -1.0754
   95ACTN    C1  947   3.444   3.848   0.989  0.4141 -0.4011 -0.3140
   95ACTN    H1  948   3.401   3.904   0.905 -0.2074  2.1783  1.6494
   95ACTN    H2  949   3.368   3.825   1.064 -0.7208 -0.2698 -1.3873
   95ACTN    H3  950   3.478   3.754   0.947  0.9433 -0.2693 -0.1805
   96ACTN    H6  951   1.194   6.896   2.658 -1.0330 -0.0504 -0.8207
   96ACTN    C3  952   1.251   6.986   2.637  0.2926 -0.5633  0.4611
   96ACTN    H4  953   1.287   7.035   2.728  0.8663 -0.1872  0.0384
   96ACTN    H5  954   1.338   6.942   2.588 -0.3897 -0.5896 -0.7702
   96ACTN    C2  955   1.158   7.065   2.544  0.2093 -0.5196  0.1766
   96ACTN    O1  956   1.206   7.135   2.454  0.6849  0.2160 -0.3238
   96ACTN    C1  957   1.006   7.056   2.565  0.5795  0.0423 -0.0019
   96ACTN    H1  958   0.966   6.974   2.624  1.4567  0.7911  1.6541
   96ACTN    H2  959   0.960   7.070   2.467  0.2537  0.8714  0.2657
   96ACTN    H3  960   0.971   7.151   2.606 -1.0095 -0.3110 -0.5302
   97ACTN    H6  961   4.916   4.926   1.911 -1.1221  1.2737  2.7518
   97ACTN    C3  962   4.994   4.874   1.967  0.1057 -0.1068 -0.1337
   97ACTN    H4  963   4.952   4.794   2.028 -0.0606 -0.1118 -0.2523
   97ACTN    H5  964   5.064   4.829   1.896  0.5066 -0.6205  0.5825
   97ACTN    C2  965   5.064   4.969   2.061 -0.3228  0.1143  0.4602
   97ACTN    O1  966   5.015   4.989   2.168  0.4388 -0.3675  0.1954
   97ACTN    C1  967   5.205   5.012   2.022  0.3893  0.1696 -0.0447
   97ACTN    H1  968   5.204   5.031   1.915 -2.7880  0.2453 -0.0602
   97ACTN    H2  969   5.269   4.929   2.051  1.7606  0.3760 -2.3697
   97ACTN    H3  970   5.234   5.104   2.073 -2.0951  0.1455  1.4945
   98ACTN    H6  971   6.265   4.809   5.116  0.4524 -0.6647  1.0786
   98ACTN    C3  972   6.188   4.802   5.193 -0.2445  0.1239  0.4678
   98ACTN    H4  973   6.108   4.739   5.153 -0.6641  0.8061  0.2372
   98ACTN    H5  974   6.232   4.748   5.277  2.6515  3.6560  1.3160
   98ACTN    C2  975   6.141   4.943   5.223 -0.1976  0.0275 -0.3454
   98ACTN    O1  976   6.169   5.031   5.140 -0.4383 -0.5742  0.2888
   98ACTN    C1  977   6.071   4.973   5.357 -0.3257 -0.4412  0.0869
   98ACTN    H1  978   5.978   5.027   5.339  0.0993  0.4362  0.5095
   98ACTN    H2  979   6.136   5.042   5.410 -1.6790 -0.1626  1.4129
   98ACTN    H3  980   6.058   4.884   5.419  0.0136 -0.4359  0.1689
   99ACTN    H6  981   0.988   7.280   1.945 -0.0260 -0.8186 -0.4864
   99ACTN    C3  982   1.080   7.266   1.888  0.2741  0.2287 -0.2551
   99ACTN    H4  983   1.104   7.363   1.844  1.2190  0.5887  1.0165
   99ACTN    H5  984   1.168   7.249   1.951  1.5935  1.0010 -1.8595
   99ACTN    C2  985   1.079   7.165   1.780 -0.1148  0.0644  0.2120
   99ACTN    O1  986   1.001   7.177   1.689  0.5031 -0.0620 -0.0309
   99ACTN    C1  987   1.185   7.061   1.764  0.1914  0.2199  0.3789
   99ACTN    H1  988   1.245   7.051   1.854 -0.2504 -1.3641  0.5139
   99ACTN    H2  989   1.250   7.096   1.684 -0.3165 -1.1379 -0.6639
   99ACTN    H3  990   1.138   6.965   1.740 -0.4217  1.0484 -1.7932
  100ACTN    H6  991   0.898   1.781   5.772 -1.5991  0.6124 -0.5280
  100ACTN    C3  992   0.916   1.829   5.868 -0.1888 -0.1243 -0.4173
  100ACTN    H4  993   0.981   1.767   5.931  0.4733 -1.2797 -2.1881
  100ACTN    H5  994   0.963   1.923   5.839 -0.0027  0.3630  1.4167
  100ACTN    C2  995   0.787   1.849   5.938  0.0201  0.4241  0.6658
  100ACTN    O1  996   0.772   1.814   6.055 -0.2829 -0.0450  0.0907
  100ACTN    C1  997   0.679   1.925   5.868 -0.4435 -1.0921  0.1682
  100ACTN    H1  998   0.599   1.958   5.935 -0.2053  0.8834 -0.4685
  100ACTN    H2  999   0.629   1.862   5.794 -0.0903 -1.7398  0.4782
  100ACTN    H3 1000   0.721   2.012   5.818 -2.0547  0.3459  1.2341
  101ACTN    H6 1001   2.897   6.041   4.917 -0.5163 -0.2579 -1.3615
  101ACTN    C3 1002   2.792   6.063   4.932 -0.2436  0.6625 -0.7584
  101ACTN    H4 1003   2.757   6.024   5.028  1.0154  0.6498 -0.2944
  101ACTN    H5 1004   2.783   6.169   4.957 -1.2268  0.5353 -0.5313
  101ACTN    C2 1005   2.706   6.027   4.817  0.5377  0.1092 -0.4965
  101ACTN    O1 1006   2.583   6.026   4.830  0.2222 -0.3718 -0.2808
  101ACTN    C1 1007   2.760   5.982   4.683  0.0559  0.0772  1.1358
  101ACTN    H1 1008   2.709   6.031   4.600 -1.5266 -0.2213  1.9134
  101ACTN    H2 1009   2.756   5.874   4.671  1.1163  0.3024 -1.7327
  101ACTN    H3 1010   2.866   6.010   4.680 -0.1136  0.6160 -0.1040
  102ACTN    H6 1011   0.024   5.357   5.407 -3.2341  1.0356  1.5243
  102ACTN    C3 1012   0.014   5.438   5.335 -0.7710  0.1271  0.0824
  102ACTN    H4 1013  -0.091   5.452   5.306 -0.6526 -1.0250 -0.9624
  102ACTN    H5 1014   0.026   5.534   5.384 -1.4070 -0.4805  1.4636
  102ACTN    C2 1015   0.107   5.425   5.212 -0.9828 -0.8446  0.0149
  102ACTN    O1 1016   0.073   5.389   5.101 -0.5634 -0.1046 -0.3628
  102ACTN    C1 1017   0.257   5.456   5.231 -0.5698 -0.0448 -0.2373
  102ACTN    H1 1018   0.316   5.379   5.181 -1.3595 -0.8179  0.0081
  102ACTN    H2 1019   0.290   5.438   5.334 -0.6207 -0.7480 -0.3376
  102ACTN    H3 1020   0.289   5.556   5.202 -1.9333  0.8117  1.1878
  103ACTN    H6 1021   4.111   4.858   0.240  0.2848 -1.1011 -1.1421
  103ACTN    C3 1022   4.023   4.794   0.233 -0.1287 -0.6213 -0.2652
  103ACTN    H4 1023   3.962   4.818   0.321 -1.1603  1.0918 -1.4279
  103ACTN    H5 1024   3.967   4.819   0.143 -1.2706  0.4446  0.6964
  103ACTN    C2 1025   4.053   4.648   0.233 -0.7416  0.4187  0.1656
  103ACTN    O1 1026   4.142   4.603   0.162  1.2676  0.0717 -0.2450
  103ACTN    C1 1027   3.983   4.552   0.322  0.4863 -0.1185 -0.1218
  103ACTN    H1 1028   4.003   4.446   0.310  0.5410 -0.0039 -1.0914
  103ACTN    H2 1029   3.877   4.572   0.307  0.6331  0.6084 -0.2493
  103ACTN    H3 1030   4.000   4.574   0.427  1.2876  0.0456 -0.2759
  104ACTN    H6 1031   5.974   0.610   5.959  3.5987  4.1481 -0.9522
  104ACTN    C3 1032   6.039   0.530   5.925 -0.3739  0.1684  0.2337
  104ACTN    H4 1033   6.135   0.574   5.898  0.2811 -2.1082 -1.3010
  104ACTN    H5 1034   6.062   0.461   6.006 -1.5161  0.0905  0.4960
  104ACTN    C2 1035   5.976   0.466   5.806  0.3622 -0.6112 -0.3644
  104ACTN    O1 1036   5.974   0.526   5.697 -1.1550  0.2610 -0.1930
  104ACTN    C1 1037   5.936   0.325   5.818 -0.4240 -0.0907 -0.4522
  104ACTN    H1 1038   6.019   0.256   5.812  1.6418  2.2697  0.1976
  104ACTN    H2 1039   5.863   0.291   5.745 -0.3523 -1.1226 -0.0545
  104ACTN    H3 1040   5.892   0.311   5.917  0.2730 -1.0584 -0.2708
  105ACTN    H6 1041   5.422   4.212   5.164 -1.1888 -0.5005  0.8858
  105ACTN    C3 1042   5.410   4.147   5.077 -0.1241  0.3029  0.1350
  105ACTN    H4 1043   5.368   4.193   4.989  0.1806 -0.0095 -0.1758
  105ACTN    H5 1044   5.507   4.100   5.058 -0.4769 -0.1555 -0.5358
  105ACTN    C2 1045   5.311   4.037   5.114 -0.1117  0.1304  0.2007
  105ACTN    O1 1046   5.265   4.012   5.229 -0.0276 -0.1547  0.1224
  105ACTN    C1 1047   5.281   3.942   5.002  0.0207  0.1513 -0.1098
  105ACTN    H1 1048   5.365   3.886   4.963 -1.5073 -0.4531 -2.6107
  105ACTN    H2 1049   5.239   3.996   4.917 -0.6056 -1.5547 -0.9074
  105ACTN    H3 1050   5.211   3.865   5.034 -2.5507  1.3525 -2.6157
  106ACTN    H6 1051   0.219   6.338   3.422 -0.5229 -1.0963 -1.2093
  106ACTN    C3 1052   0.297   6.269   3.455  0.3754  0.4391 -0.0233
  106ACTN    H4 1053   0.346   6.306   3.545 -1.7890  0.3532  1.2037
  106ACTN    H5 1054   0.255   6.171   3.478 -0.9344  0.7606 -0.9771
  106ACTN    C2 1055   0.394   6.241   3.345 -0.3645 -1.1147 -0.6178
  106ACTN    O1 1056   0.400   6.322   3.251  0.3029  0.6486 -0.2307
  106ACTN    C1 1057   0.513   6.158   3.373 -0.0959 -0.0470  0.2598
  106ACTN    H1 1058   0.596   6.169   3.303 -0.2471  1.1519  0.2515
  106ACTN    H2 1059   0.501   6.050   3.383  0.3523 -0.2033 -0.8041
  106ACTN    H3 1060   0.547   6.201   3.467 -1.0938 -1.1657  1.1545
  107ACTN    H6 1061   6.868   4.127   3.440  0.0875  1.1184 -0.6833
  107ACTN    C3 1062   6.868   4.064   3.351  0.2335 -0.1196  0.1885
  107ACTN    H4 1063   6.763   4.041   3.330  0.4706 -1.5500  0.5092
  107ACTN    H5 1064   6.910   4.130   3.276  0.9231 -0.6787  0.0792
  107ACTN    C2 1065   6.947   3.939   3.376  0.1482  0.8516  0.0121
  107ACTN    O1 1066   7.067   3.961   3.380  0.1346  0.5055  0.7478
  107ACTN    C1 1067   6.880   3.806   3.386 -0.5047 -0.1114  0.7249
  107ACTN    H1 1068   6.773   3.822   3.372 -0.5780  0.4267  1.8310
  107ACTN    H2 1069   6.899   3.768   3.486 -1.7328 -0.6593  0.7672
  107ACTN    H3 1070   6.920   3.731   3.318 -2.4831  0.2551 -0.9152
  108ACTN    H6 1071   6.380   3.529   4.303  0.6946 -1.2244 -0.4341
  108ACTN    C3 1072   6.357   3.463   4.386 -0.4996  0.2148  0.4035
  108ACTN    H4 1073   6.251   3.446   4.406 -0.7813  1.5003  0.0634
  108ACTN    H5 1074   6.404   3.367   4.363  1.2423  1.2269 -0.3693
  108ACTN    C2 1075   6.420   3.509   4.521  0.3378  0.4985 -0.2855
  108ACTN    O1 1076   6.538   3.523   4.543  0.2052  1.0478 -0.3489
  108ACTN    C1 1077   6.325   3.503   4.641 -0.0007 -0.0842 -0.4628
  108ACTN    H1 1078   6.301   3.606   4.667 -1.5024 -1.0427  2.1128
  108ACTN    H2 1079   6.366   3.445   4.724  1.0652 -3.2776 -3.0789
  108ACTN    H3 1080   6.230   3.461   4.610  0.0109  1.2029 -2.2941
  109ACTN    H6 1081   6.406   5.505   2.305  1.2120  0.6483 -0.5178
  109ACTN    C3 1082   6.401   5.437   2.220 -0.3574  0.2355 -0.1181
  109ACTN    H4 1083   6.498   5.389   2.204 -0.0419  0.5587  0.8039
  109ACTN    H5 1084   6.325   5.364   2.246 -2.6773  2.5818 -0.1585
  109ACTN    C2 1085   6.365   5.509   2.099  0.3179  0.0936  0.1251
  109ACTN    O1 1086   6.258   5.574   2.106 -0.3892  1.0850  0.6749
  109ACTN    C1 1087   6.450   5.506   1.969  0.2895 -0.6417 -0.6102
  109ACTN    H1 1088   6.555   5.507   1.998 -0.7325 -0.2405  3.3757
  109ACTN    H2 1089   6.432   5.596   1.910  1.1725 -1.7136 -2.5734
  109ACTN    H3 1090   6.418   5.413   1.921 -1.7022 -0.0846 -0.4165
  110ACTN    H6 1091   3.241   4.578   5.394  0.4690 -1.3008  0.6968
  110ACTN    C3 1092   3.301   4.517   5.327 -0.3833 -0.4266 -0.8919
  110ACTN    H4 1093   3.282   4.566   5.231 -1.7672 -0.2485 -0.5408
  110ACTN    H5 1094   3.406   4.508   5.354 -1.0299 -0.5700  1.6827
  110ACTN    C2 1095   3.242   4.375   5.313 -0.6708  0.1057 -0.5707
  110ACTN    O1 1096   3.233   4.303   5.410  0.5758  0.3165  0.0682
  110ACTN    C1 1097   3.182   4.339   5.180  0.7388  0.1224 -0.1671
  110ACTN    H1 1098   3.074   4.354   5.189  0.6473  0.0731 -1.1682
  110ACTN    H2 1099   3.204   4.235   5.156  0.0807  0.1558 -0.9271
  110ACTN    H3 1100   3.219   4.393   5.093  0.4181 -0.9030 -0.9462
  111ACTN    H6 1101   3.433   0.127   3.554  1.2704 -0.1224  0.9085
  111ACTN    C3 1102   3.400   0.032   3.594  0.3343 -0.2732 -0.1931
  111ACTN    H4 1103   3.373  -0.030   3.508 -1.8041  0.1556  0.1379
  111ACTN    H5 1104   3.477  -0.017   3.654  0.8396 -0.3004 -0.8481
  111ACTN    C2 1105   3.285   0.040   3.688 -0.1475 -0.2284 -0.0437
  111ACTN    O1 1106   3.180  -0.017   3.657  0.1989 -0.6946  0.1641
  111ACTN    C1 1107   3.305   0.135   3.797  0.3616 -1.5346 -0.2130
  111ACTN    H1 1108   3.333   0.084   3.889 -0.4485  0.0944  0.9564
  111ACTN    H2 1109   3.215   0.190   3.820  1.4451  1.2369 -2.3635
  111ACTN    H3 1110   3.378   0.210   3.767 -0.0401 -0.9567  0.2559
  112ACTN    H6 1111   7.130   0.452   3.775 -0.1167  0.3289  0.0691
  112ACTN    C3 1112   7.100   0.555   3.759  0.4040  0.5766  0.6686
  112ACTN    H4 1113   7.012   0.558   3.695 -0.3134 -1.0618  1.5577
  112ACTN    H5 1114   7.074   0.603   3.854  0.3776  0.8340  0.5303
  112ACTN    C2 1115   7.212   0.636   3.700  0.8529 -0.6360  0.0049
  112ACTN    O1 1116   7.185   0.738   3.633  0.8678  0.0315  0.3958
  112ACTN    C1 1117   7.342   0.647   3.766  0.4728 -0.0211  0.1134
  112ACTN    H1 1118   7.344   0.575   3.848  1.1875  1.3400  1.3234
  112ACTN    H2 1119   7.374   0.745   3.801  2.2497 -0.9241  1.0982
  112ACTN    H3 1120   7.411   0.607   3.692  1.0773  0.8620  0.1857
  113ACTN    H6 1121   7.005   2.813   6.350 -0.4954  0.4858 -0.3229
  113ACTN    C3 1122   7.051   2.821   6.449 -0.1075 -0.4264 -0.4194
  113ACTN    H4 1123   7.088   2.924   6.455 -1.4935  0.0700 -0.0344
  113ACTN    H5 1124   6.974   2.810   6.525 -0.4593  1.5216 -0.4469
  113ACTN    C2 1125   7.151   2.711   6.450 -0.4592 -0.4733 -0.6713
  113ACTN    O1 1126   7.157   2.628   6.364 -0.1237  0.5485 -0.6750
  113ACTN    C1 1127   7.230   2.691   6.583  0.6317  0.5402  0.4906
  113ACTN    H1 1128   7.332   2.667   6.554  0.4296  0.7015 -0.3850
  113ACTN    H2 1129   7.190   2.609   6.641 -0.9027  0.3962 -0.7288
  113ACTN    H3 1130   7.225   2.783   6.642 -2.0429 -0.1676  1.4504
  114ACTN    H6 1131   5.130   4.174   3.517 -1.3908  0.7634 -1.3615
  114ACTN    C3 1132   5.213   4.240   3.492 -0.8516  0.4056 -0.5076
  114ACTN    H4 1133   5.225   4.215   3.387 -0.3706  1.0647 -0.6106
  114ACTN    H5 1134   5.311   4.215   3.533 -1.1562  1.4871  0.9155
  114ACTN    C2 1135   5.191   4.382   3.508  0.2629 -0.9563 -0.1786
  114ACTN    O1 1136   5.107   4.440   3.441  0.2318  0.4475 -0.0176
  114ACTN    C1 1137   5.270   4.467   3.602 -0.2713  0.0077 -0.1004
  114ACTN    H1 1138   5.259   4.435   3.705  1.3621 -0.1188  0.0467
  114ACTN    H2 1139   5.229   4.567   3.592  0.2414  0.1657 -0.6872
  114ACTN    H3 1140   5.378   4.465   3.584 -0.1403 -0.3596  0.7083
  115ACTN    H6 1141   5.226   4.838   3.675  0.5254  1.5304 -2.1311
  115ACTN    C3 1142   5.242   4.930   3.731  0.2430  0.2364  0.1234
  115ACTN    H4 1143   5.337   4.976   3.704 -0.0659  0.3732 -0.7684
  115ACTN    H5 1144   5.163   5.000   3.705  0.1836 -0.3893 -1.4452
  115ACTN    C2 1145   5.243   4.906   3.879 -0.4763  0.8500 -0.3197
  115ACTN    O1 1146   5.230   4.994   3.961  0.1633  0.5171 -0.3277
  115ACTN    C1 1147   5.242   4.758   3.922  0.4514 -0.0843  0.2602
  115ACTN    H1 1148   5.216   4.740   4.026  2.4376  0.3601  0.8657
  115ACTN    H2 1149   5.338   4.711   3.897 -0.2179 -1.5009  0.3265
  115ACTN    H3 1150   5.170   4.708   3.857  3.1036 -1.8199 -1.4595
  116ACTN    H6 1151   5.893   1.960   5.588  0.4512  2.4090 -1.3689
  116ACTN    C3 1152   5.989   1.945   5.637 -0.4675 -0.7374 -0.4274
  116ACTN    H4 1153   6.015   2.045   5.672 -0.1994 -1.4844  1.5751
  116ACTN    H5 1154   5.969   1.878   5.721 -1.0845 -1.5026 -1.1773
  116ACTN    C2 1155   6.086   1.883   5.539  0.4397 -0.4294  0.3661
  116ACTN    O1 1156   6.046   1.815   5.445  0.2171 -0.5138  0.5304
  116ACTN    C1 1157   6.233   1.907   5.574 -0.4007 -0.0923  0.5577
  116ACTN    H1 1158   6.258   1.852   5.665  2.4259 -0.7863 -0.5752
  116ACTN    H2 1159   6.263   2.009   5.596  2.1773 -0.2324 -1.9356
  116ACTN    H3 1160   6.290   1.870   5.488 -2.5128 -3.0609  0.3435
  117ACTN    H6 1161   5.388   5.528   4.029 -1.6632 -0.8575  1.3487
  117ACTN    C3 1162   5.413   5.427   4.059 -0.0476 -0.6485  0.7288
  117ACTN    H4 1163   5.331   5.359   4.037  1.4257 -1.1670 -3.5653
  117ACTN    H5 1164   5.507   5.392   4.016  1.2416  2.3572  1.0003
  117ACTN    C2 1165   5.427   5.425   4.205  0.0271  0.2264  0.3871
  117ACTN    O1 1166   5.538   5.401   4.247 -0.0166 -1.3504  0.4687
  117ACTN    C1 1167   5.311   5.452   4.287  0.1584 -0.2277 -0.4759
  117ACTN    H1 1168   5.335   5.455   4.393 -0.4860  2.2696 -0.3636
  117ACTN    H2 1169   5.231   5.382   4.264 -0.8493  0.1515  1.7503
  117ACTN    H3 1170   5.280   5.555   4.265 -1.3313 -0.9004 -1.6876
  118ACTN    H6 1171   6.872   1.162   5.345 -0.8634 -0.0607 -2.0845
  118ACTN    C3 1172   6.799   1.083   5.364 -0.1457 -0.1392  0.5751
  118ACTN    H4 1173   6.793   1.015   5.279 -1.8264 -1.3564  1.6236
  118ACTN    H5 1174   6.846   1.027   5.445  1.6954 -2.0977 -1.7521
  118ACTN    C2 1175   6.662   1.134   5.410 -0.1470  0.3796  0.0603
  118ACTN    O1 1176   6.658   1.221   5.496 -0.4443  0.4728 -0.5331
  118ACTN    C1 1177   6.548   1.111   5.319 -0.9390  0.5803  0.0702
  118ACTN    H1 1178   6.477   1.193   5.322 -1.0105  0.5642 -0.8661
  118ACTN    H2 1179   6.492   1.019   5.336 -1.7490  0.6103 -2.2242
  118ACTN    H3 1180   6.582   1.105   5.215 -0.3784  1.8252  0.1784
  119ACTN    H6 1181   6.391   5.325   0.161 -0.3397 -1.4503 -0.7037
  119ACTN    C3 1182   6.480   5.331   0.098  0.0337 -0.3028 -0.0881
  119ACTN    H4 1183   6.506   5.434   0.073 -0.5796 -0.1826 -0.2423
  119ACTN    H5 1184   6.561   5.274   0.143 -0.6976 -1.1160  0.2119
  119ACTN    C2 1185   6.436   5.257  -0.028 -0.7756  0.0054  0.5054
  119ACTN    O1 1186   6.333   5.192  -0.037  0.0757 -0.0108  0.6873
  119ACTN    C1 1187   6.518   5.258  -0.153 -0.2345  0.0728  0.3304
  119ACTN    H1 1188   6.618   5.218  -0.132 -0.6711 -1.0747  0.2636
  119ACTN    H2 1189   6.526   5.364  -0.179 -0.5058 -0.1839 -0.8024
  119ACTN    H3 1190   6.481   5.206  -0.241 -0.1309  0.5113  0.0255
  120ACTN    H6 1191   2.125   1.977   2.704  0.9867 -1.5349 -0.2952
  120ACTN    C3 1192   2.157   1.953   2.805  0.3287  0.6231  0.4455
  120ACTN    H4 1193   2.256   1.907   2.797 -0.0971 -0.1750 -0.2006
  120ACTN    H5 1194   2.173   2.033   2.877  0.7001  0.0235  1.0377
  120ACTN    C2 1195   2.066   1.850   2.864  0.0627  0.8171  0.1167
  120ACTN    O1 1196   1.972   1.884   2.937 -0.0388  0.6503  0.3313
  120ACTN    C1 1197   2.106   1.715   2.867  0.1606  0.4000 -0.2254
  120ACTN    H1 1198   2.206   1.705   2.910  0.8727 -0.4947 -2.0202
  120ACTN    H2 1199   2.107   1.684   2.762 -2.0816 -2.2617  0.4937
  120ACTN    H3 1200   2.041   1.649   2.924  0.3423 -1.1442 -1.7593
  121ACTN    H6 1201   4.558   2.229   1.434 -0.1459  0.1984 -2.3145
  121ACTN    C3 1202   4.664   2.210   1.415  0.0862 -0.2960 -0.5506
  121ACTN    H4 1203   4.694   2.124   1.475  1.4927  0.8393  0.4198
  121ACTN    H5 1204   4.660   2.187   1.309 -0.9933  0.5267 -0.6992
  121ACTN    C2 1205   4.737   2.339   1.442 -0.4172  0.0629  0.0142
  121ACTN    O1 1206   4.818   2.368   1.359 -0.2634  0.1200 -0.1086
  121ACTN    C1 1207   4.681   2.453   1.519 -0.5555  0.7853 -0.3061
  121ACTN    H1 1208   4.648   2.412   1.614  3.1806 -2.2376 -0.2026
  121ACTN    H2 1209   4.592   2.497   1.473  0.7322  2.5950 -1.1386
  121ACTN    H3 1210   4.752   2.531   1.546  0.9446 -0.7723  0.3623
  122ACTN    H6 1211   6.712   6.264   5.408 -0.1658  2.4808  2.8901
  122ACTN    C3 1212   6.700   6.354   5.348  0.0486  0.0738 -0.9719
  122ACTN    H4 1213   6.605   6.397   5.381  0.6868  1.2295 -0.6130
  122ACTN    H5 1214   6.773   6.434   5.356  0.0063  0.3360 -2.8769
  122ACTN    C2 1215   6.692   6.315   5.204 -0.7816 -0.4697 -0.2062
  122ACTN    O1 1216   6.781   6.348   5.129 -0.2093  0.0445  0.3278
  122ACTN    C1 1217   6.589   6.214   5.161 -0.2675  0.0966 -0.0017
  122ACTN    H1 1218   6.640   6.126   5.123  2.3861  2.2894 -1.6689
  122ACTN    H2 1219   6.536   6.260   5.077 -2.2680 -0.7211  0.7632
  122ACTN    H3 1220   6.517   6.182   5.237  1.5620  0.2128  1.8466
  123ACTN    H6 1221   4.987   0.229   4.464  0.2377  0.0355  0.3181
  123ACTN    C3 1222   4.933   0.222   4.558 -0.4885  0.4012 -0.0696
  123ACTN    H4 1223   4.872   0.310   4.577 -1.6768 -0.6977  1.2951
  123ACTN    H5 1224   4.863   0.140   4.547  1.1341 -1.0728  0.3396
  123ACTN    C2 1225   5.029   0.213   4.667  0.8048  0.8235  0.0329
  123ACTN    O1 1226   5.132   0.282   4.668  0.1486  0.3226  0.0447
  123ACTN    C1 1227   4.999   0.135   4.786  0.0469  0.3066 -0.2379
  123ACTN    H1 1228   5.077   0.140   4.862 -1.5776 -1.4857  1.5957
  123ACTN    H2 1229   4.973   0.035   4.753  1.0457  0.4276 -1.4297
  123ACTN    H3 1230   4.909   0.181   4.828  1.2569  1.8266  0.8020
  124ACTN    H6 1231   2.117   6.389   4.867  0.2490  1.3291  0.0609
  124ACTN    C3 1232   2.010   6.410   4.865  0.0436  0.2277 -0.4849
  124ACTN    H4 1233   1.983   6.438   4.763  3.0814  0.1667 -1.3486
  124ACTN    H5 1234   1.953   6.320   4.889 -0.1997  0.0890 -1.5454
  124ACTN    C2 1235   1.982   6.517   4.961 -0.7517  0.2854 -0.8312
  124ACTN    O1 1236   1.886   6.510   5.034  0.3115  0.4127 -0.0290
  124ACTN    C1 1237   2.047   6.652   4.962  0.6356  0.3897  0.3234
  124ACTN    H1 1238   2.131   6.642   4.894  0.5914  3.1855 -0.2116
  124ACTN    H2 1239   2.077   6.691   5.059 -0.1424 -1.4701  1.3488
  124ACTN    H3 1240   1.984   6.727   4.913  1.1567  0.9013  0.4295
  125ACTN    H6 1241   0.514   2.275   3.875  1.2145  0.0095  0.2332
  125ACTN    C3 1242   0.519   2.371   3.925  0.1220 -0.0637  0.4967
  125ACTN    H4 1243   0.494   2.452   3.856  2.0035 -0.1034 -0.2545
  125ACTN    H5 1244   0.446   2.371   4.006  2.2017 -1.3891  2.4177
  125ACTN    C2 1245   0.659   2.387   3.965 -0.2400  0.5096 -0.4101
  125ACTN    O1 1246   0.740   2.389   3.877 -0.2611 -0.0712  0.9072
  125ACTN    C1 1247   0.700   2.381   4.110  0.4287 -0.4666  0.1903
  125ACTN    H1 1248   0.752   2.475   4.130 -0.0754 -0.5690  2.0390
  125ACTN    H2 1249   0.772   2.302   4.135  0.1442 -0.8197 -0.0949
  125ACTN    H3 1250   0.614   2.375   4.176  0.6342  0.0471  0.5086
  126ACTN    H6 1251   4.919   5.720   2.777  0.1420  1.2626 -0.0221
  126ACTN    C3 1252   4.944   5.674   2.681 -0.2027  0.9951  0.0119
  126ACTN    H4 1253   5.051   5.663   2.663 -0.4386  0.0601 -0.8298
  126ACTN    H5 1254   4.900   5.740   2.607 -0.9398  1.7735  1.1334
  126ACTN    C2 1255   4.878   5.549   2.668  0.5801  0.4703 -0.1630
  126ACTN    O1 1256   4.914   5.463   2.587  0.4477  0.3498  0.1821
  126ACTN    C1 1257   4.792   5.511   2.779 -0.1994 -0.0079 -0.2931
  126ACTN    H1 1258   4.845   5.486   2.870  0.0060  0.7881 -0.1972
  126ACTN    H2 1259   4.741   5.419   2.748 -2.8503  1.0920  0.6693
  126ACTN    H3 1260   4.713   5.584   2.797 -0.4204  0.3109 -2.3335
  127ACTN    H6 1261   3.488   6.078   0.199 -1.6023 -0.3899  1.4282
  127ACTN    C3 1262   3.404   6.130   0.153  0.0939  1.0803 -0.0611
  127ACTN    H4 1263   3.410   6.137   0.044  0.9086 -0.9546 -0.1709
  127ACTN    H5 1264   3.313   6.077   0.181  0.8636  0.3657  1.1386
  127ACTN    C2 1265   3.393   6.268   0.202  0.1864  0.1296  0.5523
  127ACTN    O1 1266   3.493   6.334   0.225  0.1751  0.1480 -0.6677
  127ACTN    C1 1267   3.259   6.325   0.215  0.0867 -0.4117 -0.4269
  127ACTN    H1 1268   3.250   6.432   0.236  0.7571 -0.5435  0.5837
  127ACTN    H2 1269   3.209   6.284   0.303 -0.7289 -2.8436 -2.0108
  127ACTN    H3 1270   3.196   6.298   0.131 -0.1438  1.1957 -0.7956
  128ACTN    H6 1271   2.535   5.923   2.132  2.1059  0.6601  0.5921
  128ACTN    C3 1272   2.518   5.902   2.237 -0.5885  0.3020  0.1218
  128ACTN    H4 1273   2.612   5.917   2.291 -0.9290  0.2049  0.7536
  128ACTN    H5 1274   2.444   5.973   2.274 -0.3625 -0.1714  1.5292
  128ACTN    C2 1275   2.470   5.760   2.251  0.2036 -0.6093 -0.3187
  128ACTN    O1 1276   2.369   5.726   2.197  0.3221 -0.4951 -0.2796
  128ACTN    C1 1277   2.545   5.665   2.335  0.6573 -0.2880  0.3335
  128ACTN    H1 1278   2.560   5.570   2.282  2.2675 -0.6539  1.3907
  128ACTN    H2 1279   2.490   5.647   2.427 -0.8086  0.1781 -0.4404
  128ACTN    H3 1280   2.646   5.697   2.360  0.7857 -0.7783  0.4648
  129ACTN    H6 1281   0.043   5.978   2.037  0.1221 -2.0077  0.3368
  129ACTN    C3 1282  -0.057   5.976   1.993  0.6222 -0.5322 -0.8792
  129ACTN    H4 1283  -0.080   5.878   1.953 -0.2897  0.3742 -2.6251
  129ACTN    H5 1284  -0.125   6.009   2.071  1.0828  0.8259 -1.0398
  129ACTN    C2 1285  -0.068   6.071   1.878  0.9758 -0.6354 -0.1465
  129ACTN    O1 1286   0.035   6.134   1.849  0.1594  0.7500  0.2532
  129ACTN    C1 1287  -0.199   6.075   1.817  0.2438  0.1616 -0.1826
  129ACTN    H1 1288  -0.241   5.975   1.816 -1.1125  0.7238 -1.9086
  129ACTN    H2 1289  -0.201   6.119   1.717  2.7700  1.4349  0.2694
  129ACTN    H3 1290  -0.259   6.140   1.880  0.3086 -0.3437  0.4013
  130ACTN    H6 1291   5.780   4.741   5.014  0.6246  0.1660 -0.5780
  130ACTN    C3 1292   5.764   4.633   5.008 -0.0952  0.2066  0.3842
  130ACTN    H4 1293   5.822   4.601   4.921  1.3203 -1.4933  1.9364
  130ACTN    H5 1294   5.807   4.582   5.094  1.1103  0.1638 -0.2358
  130ACTN    C2 1295   5.624   4.598   4.995  0.5833 -0.0634  0.1844
  130ACTN    O1 1296   5.582   4.586   4.879  0.0247 -0.0371 -0.3494
  130ACTN    C1 1297   5.524   4.584   5.107 -0.2408 -0.2615  0.3233
  130ACTN    H1 1298   5.502   4.685   5.141 -1.7228  0.0535 -1.5083
  130ACTN    H2 1299   5.566   4.522   5.187 -0.6254 -2.3949 -1.0962
  130ACTN    H3 1300   5.431   4.545   5.067 -0.1486  0.9874 -1.1560
  131ACTN    H6 1301   2.168   5.537   4.898 -1.4608  1.8422  0.1905
  131ACTN    C3 1302   2.093   5.462   4.921  0.1718  0.2325  0.3225
  131ACTN    H4 1303   2.049   5.479   5.019  0.0747 -1.3187  0.5665
  131ACTN    H5 1304   2.008   5.460   4.854  0.0015  0.4055  0.5351
  131ACTN    C2 1305   2.168   5.331   4.908 -0.4362  0.0730 -0.1223
  131ACTN    O1 1306   2.280   5.325   4.955 -0.6429  0.4188  0.0922
  131ACTN    C1 1307   2.070   5.212   4.897  0.4665 -0.1038  0.4945
  131ACTN    H1 1308   2.108   5.139   4.825  3.0900  0.1440  1.5856
  131ACTN    H2 1309   1.968   5.240   4.869  0.3375 -0.6097  0.4593
  131ACTN    H3 1310   2.063   5.159   4.992  2.4268  1.4708  1.5445
  132ACTN    H6 1311   0.157   5.610   1.438  0.1591 -1.0643  0.0319
  132ACTN    C3 1312   0.088   5.596   1.521  0.1261 -0.0746  0.1772
  132ACTN    H4 1313   0.012   5.524   1.489 -0.5735  0.1048  1.3888
  132ACTN    H5 1314   0.128   5.555   1.613  2.0941 -1.1146 -1.1181
  132ACTN    C2 1315   0.027   5.727   1.557 -0.6537  0.4473 -0.5147
  132ACTN    O1 1316  -0.038   5.801   1.485 -0.5346 -0.3240 -0.0705
  132ACTN    C1 1317   0.074   5.789   1.684  0.2150  0.3989 -0.6663
  132ACTN    H1 1318   0.167   5.846   1.678  1.1531 -1.1094 -0.4850
  132ACTN    H2 1319   0.082   5.719   1.767  1.1415  1.0719 -0.1661
  132ACTN    H3 1320   0.002   5.867   1.709  0.8521  0.4175  1.2343
  133ACTN    H6 1321   4.315   2.451   7.149 -0.6507 -3.4387  0.0134
  133ACTN    C3 1322   4.397   2.455   7.077 -0.6838 -0.6134  0.0627
  133ACTN    H4 1323   4.394   2.371   7.007  0.1295  0.7035 -1.5686
  133ACTN    H5 1324   4.386   2.548   7.021  0.0733 -1.9054 -2.3158
  133ACTN    C2 1325   4.532   2.457   7.142  0.2739 -0.7245  0.0220
  133ACTN    O1 1326   4.576   2.364   7.208 -0.1151  0.1814 -0.5230
  133ACTN    C1 1327   4.617   2.582   7.130 -0.6996 -0.1018  0.3805
  133ACTN    H1 1328   4.693   2.580   7.208  0.5784  2.5879 -0.7513
  133ACTN    H2 1329   4.560   2.673   7.148 -0.1824  0.0442  1.3121
  133ACTN    H3 1330   4.660   2.588   7.030 -2.9866 -1.2588 -0.7097
  134ACTN    H6 1331   2.292   0.963   4.803  0.0675 -0.8503 -1.3239
  134ACTN    C3 1332   2.289   1.072   4.794 -0.5085 -0.7179  0.2771
  134ACTN    H4 1333   2.377   1.109   4.846 -0.9461  0.0881  0.4456
  134ACTN    H5 1334   2.303   1.092   4.688 -0.7354  0.9431  0.5511
  134ACTN    C2 1335   2.162   1.138   4.838 -0.0790 -0.2832 -1.0489
  134ACTN    O1 1336   2.156   1.247   4.886 -0.1611  0.1597  0.0364
  134ACTN    C1 1337   2.038   1.055   4.807 -0.0591 -0.0938  0.0526
  134ACTN    H1 1338   2.002   1.008   4.898  0.1170  0.9691  0.6748
  134ACTN    H2 1339   2.063   0.973   4.740  1.0363 -2.2318  2.9838
  134ACTN    H3 1340   1.961   1.116   4.759  1.6493  0.4984 -1.9928
  135ACTN    H6 1341   0.088   2.652   5.672 -0.8168 -0.2853  0.9542
  135ACTN    C3 1342   0.159   2.603   5.738  0.1660  0.4713  0.4744
  135ACTN    H4 1343   0.257   2.631   5.698 -0.3971 -1.9434 -2.8539
  135ACTN    H5 1344   0.157   2.654   5.834  0.9389 -1.4022  1.5187
  135ACTN    C2 1345   0.157   2.450   5.721  0.6038 -0.6664 -0.2604
  135ACTN    O1 1346   0.049   2.398   5.686  0.2836  0.3139  0.4635
  135ACTN    C1 1347   0.284   2.369   5.739  0.0740  0.2699  0.0903
  135ACTN    H1 1348   0.349   2.406   5.660 -0.9021  2.5413  0.3112
  135ACTN    H2 1349   0.272   2.261   5.730  1.4451 -0.3363  4.4827
  135ACTN    H3 1350   0.326   2.386   5.838  2.0892  0.7099 -0.8171
  136ACTN    H6 1351   4.085   1.876   2.980 -0.3077 -1.3361  1.6277
  136ACTN    C3 1352   4.139   1.940   3.049 -0.1323 -0.1010  0.3884
  136ACTN    H4 1353   4.086   2.033   3.067  0.6877  0.4936 -0.2080
  136ACTN    H5 1354   4.141   1.888   3.145 -0.1231 -0.1691  0.3515
  136ACTN    C2 1355   4.283   1.959   3.002 -0.1837 -0.1076  0.0996
  136ACTN    O1 1356   4.309   2.031   2.904 -0.0814  0.1679 -0.2686
  136ACTN    C1 1357   4.398   1.911   3.082 -0.8372  0.3092 -0.0635
  136ACTN    H1 1358   4.434   1.824   3.027  0.2147  0.1846  0.8005
  136ACTN    H2 1359   4.369   1.875   3.181 -1.3433 -3.3039 -1.4259
  136ACTN    H3 1360   4.483   1.976   3.102  0.5877 -1.2860 -0.8083
  137ACTN    H6 1361   0.299   3.874   3.827 -0.1902  0.6001  1.5601
  137ACTN    C3 1362   0.401   3.913   3.826  0.0963 -0.1429  0.2121
  137ACTN    H4 1363   0.423   3.966   3.919 -1.7939 -0.0980  0.6562
  137ACTN    H5 1364   0.465   3.826   3.814 -0.8489 -0.3404 -4.0757
  137ACTN    C2 1365   0.421   3.994   3.694  0.5774 -0.4273  0.1859
  137ACTN    O1 1366   0.535   4.024   3.652  0.1251  0.1147  0.1386
  137ACTN    C1 1367   0.304   4.002   3.597 -0.8043  0.1882  0.3383
  137ACTN    H1 1368   0.313   4.073   3.515 -2.5648  0.6282  0.4888
  137ACTN    H2 1369   0.213   4.034   3.648 -1.7015 -0.5569 -0.7701
  137ACTN    H3 1370   0.284   3.905   3.551 -1.2194  0.6966 -0.5709
  138ACTN    H6 1371   6.621   4.932   0.844  0.7447 -0.1791 -1.7151
  138ACTN    C3 1372   6.713   4.875   0.848  0.5569 -0.3300  0.5934
  138ACTN    H4 1373   6.694   4.803   0.928 -0.8252 -0.0092  0.5722
  138ACTN    H5 1374   6.724   4.809   0.762 -0.8823  0.6292 -0.3367
  138ACTN    C2 1375   6.838   4.953   0.873 -0.5124  0.2298  0.5018
  138ACTN    O1 1376   6.932   4.895   0.934 -0.1273  0.4294  0.3175
  138ACTN    C1 1377   6.842   5.096   0.820 -0.0405  0.9537  0.3514
  138ACTN    H1 1378   6.938   5.105   0.770  0.3917 -0.5848  0.8839
  138ACTN    H2 1379   6.828   5.176   0.892 -0.4534  2.0933 -0.9758
  138ACTN    H3 1380   6.755   5.105   0.754 -0.2831  0.2006  0.5573
  139ACTN    H6 1381   5.562   1.490   2.557 -0.3938  0.6517  0.2796
  139ACTN    C3 1382   5.504   1.477   2.466 -0.3553 -0.1325  0.3607
  139ACTN    H4 1383   5.567   1.505   2.381 -1.3175  0.0554 -0.3087
  139ACTN    H5 1384   5.487   1.369   2.459  2.7729 -0.6418 -0.2600
  139ACTN    C2 1385   5.385   1.570   2.469  0.3840  0.9720 -0.0321
  139ACTN    O1 1386   5.269   1.535   2.506  0.8727 -0.1634  0.0852
  139ACTN    C1 1387   5.402   1.708   2.409 -0.3532 -0.5299 -0.8129
  139ACTN    H1 1388   5.423   1.703   2.302 -0.5878 -1.1619 -0.8293
  139ACTN    H2 1389   5.481   1.772   2.449 -3.1894  0.9959  2.5923
  139ACTN    H3 1390   5.310   1.766   2.412 -1.0101 -1.5928 -0.4308
  140ACTN    H6 1391   0.142   7.348   3.543 -0.7757 -0.4754 -0.8296
  140ACTN    C3 1392   0.200   7.270   3.494 -0.3546 -0.3099 -0.6021
  140ACTN    H4 1393   0.299   7.305   3.521 -0.4726  1.1692 -1.9985
  140ACTN    H5 1394   0.184   7.178   3.551  1.4406 -0.6142 -0.5762
  140ACTN    C2 1395   0.177   7.249   3.346 -0.0114 -0.2793  0.5009
  140ACTN    O1 1396   0.106   7.325   3.279  0.2746  0.0624 -0.4716
  140ACTN    C1 1397   0.265   7.140   3.289  0.4401 -0.6161  0.6843
  140ACTN    H1 1398   0.337   7.098   3.359  1.9069  3.5318  1.7477
  140ACTN    H2 1399   0.320   7.174   3.201  3.8871  1.1829  3.4367
  140ACTN    H3 1400   0.195   7.061   3.261 -1.3501  0.2709  2.5454
  141ACTN    H6 1401   0.425   0.870   6.312 -0.7473 -1.2788  2.5563
  141ACTN    C3 1402   0.524   0.901   6.344 -0.3723  0.6685 -0.2839
  141ACTN    H4 1403   0.541   0.845   6.436  0.3896 -0.7771 -1.2856
  141ACTN    H5 1404   0.600   0.885   6.267  0.8088  0.4496  0.9144
  141ACTN    C2 1405   0.509   1.043   6.391  0.4348 -0.3681  0.0668
  141ACTN    O1 1406   0.572   1.094   6.486 -0.1178  0.4816 -0.0898
  141ACTN    C1 1407   0.406   1.133   6.328  0.3974  0.1180  0.0514
  141ACTN    H1 1408   0.448   1.228   6.296 -2.4072  1.2566 -0.4033
  141ACTN    H2 1409   0.327   1.159   6.399  1.1179 -0.0173  0.9115
  141ACTN    H3 1410   0.356   1.082   6.246 -0.9324 -0.6750  1.3238
  142ACTN    H6 1411   0.417   7.152   2.282  0.0285 -0.4139 -0.2564
  142ACTN    C3 1412   0.431   7.063   2.343  0.9649 -0.1424 -0.0714
  142ACTN    H4 1413   0.507   6.996   2.301  0.7571 -0.1366 -0.4620
  142ACTN    H5 1414   0.465   7.095   2.442 -0.8200  0.4757  0.3502
  142ACTN    C2 1415   0.302   6.994   2.343  0.3507  0.3228 -0.3837
  142ACTN    O1 1416   0.300   6.876   2.372  0.1628 -0.2473  0.1130
  142ACTN    C1 1417   0.177   7.074   2.363 -0.2245  0.4051 -0.4486
  142ACTN    H1 1418   0.165   7.149   2.285 -0.4440 -0.2557 -1.0522
  142ACTN    H2 1419   0.171   7.117   2.464 -1.7659 -1.9783  0.5207
  142ACTN    H3 1420   0.086   7.014   2.354  0.2277 -0.1166 -1.6230
  143ACTN    H6 1421   6.866   2.378   3.153 -2.3102 -0.8500  2.5115
  143ACTN    C3 1422   6.936   2.381   3.237 -0.3845 -0.2321  0.9098
  143ACTN    H4 1423   6.905   2.305   3.309 -0.7100 -2.3434 -1.3971
  143ACTN    H5 1424   6.933   2.482   3.277  0.0828  0.0082  0.3501
  143ACTN    C2 1425   7.074   2.352   3.183  0.7071  0.4143 -0.4138
  143ACTN    O1 1426   7.169   2.414   3.222  0.1581  0.1353 -0.3068
  143ACTN    C1 1427   7.092   2.223   3.103  0.1672 -0.3352 -0.2745
  143ACTN    H1 1428   6.993   2.179   3.088 -1.0922  2.4594 -0.4675
  143ACTN    H2 1429   7.151   2.153   3.162  2.5819  2.8278  1.2083
  143ACTN    H3 1430   7.128   2.244   3.003 -0.8069 -0.6632 -0.7007
  144ACTN    H6 1431   0.345   1.171   4.147 -1.9801 -0.3100  0.0047
  144ACTN    C3 1432   0.340   1.151   4.040 -0.0427 -0.2384 -0.1130
  144ACTN    H4 1433   0.419   1.081   4.011 -0.8384 -1.2115  0.0481
  144ACTN    H5 1434   0.245   1.107   4.011  0.0236 -0.8536  0.5889
  144ACTN    C2 1435   0.352   1.283   3.963 -0.1477 -0.0007 -0.0229
  144ACTN    O1 1436   0.419   1.303   3.864  0.1685 -0.4367 -0.3550
  144ACTN    C1 1437   0.262   1.393   4.007  0.9839  0.3414  0.1985
  144ACTN    H1 1438   0.305   1.453   4.087  2.0140  0.0572 -0.1284
  144ACTN    H2 1439   0.168   1.351   4.041  1.6425 -1.0495  0.3294
  144ACTN    H3 1440   0.242   1.457   3.920  3.8770  2.0298  0.6968
  145ACTN    H6 1441   7.040   5.290   2.118  0.9055 -0.7472 -0.1982
  145ACTN    C3 1442   6.983   5.244   2.198  0.2254  0.4086 -0.0064
  145ACTN    H4 1443   6.880   5.238   2.164  1.1570 -1.3926 -2.6470
  145ACTN    H5 1444   7.010   5.140   2.220 -0.4827  0.0522 -0.8074
  145ACTN    C2 1445   6.983   5.340   2.310 -0.5625  0.2218  0.0959
  145ACTN    O1 1446   6.889   5.346   2.384 -0.2666 -0.2346 -0.8424
  145ACTN    C1 1447   7.103   5.433   2.346  0.2323 -0.5454 -0.2093
  145ACTN    H1 1448   7.150   5.390   2.434 -0.4901  1.9004  1.4039
  145ACTN    H2 1449   7.065   5.532   2.372  1.6959  0.0216 -0.1800
  145ACTN    H3 1450   7.172   5.436   2.262 -0.5708  1.9067 -0.8094
  146ACTN    H6 1451   0.471   4.464   2.793 -1.3929 -1.0221  1.4290
  146ACTN    C3 1452   0.454   4.366   2.750  0.2980 -0.7452  0.0885
  146ACTN    H4 1453   0.550   4.316   2.731  1.2747  1.0117  0.2877
  146ACTN    H5 1454   0.401   4.296   2.814  1.0314 -0.2207  1.2855
  146ACTN    C2 1455   0.363   4.397   2.631  0.3437  0.7397  0.3552
  146ACTN    O1 1456   0.253   4.454   2.651 -0.3722 -0.0985  0.0490
  146ACTN    C1 1457   0.411   4.346   2.499  0.0897 -0.2429 -0.1638
  146ACTN    H1 1458   0.513   4.372   2.472  0.8793 -1.7820  1.2265
  146ACTN    H2 1459   0.343   4.379   2.421  0.6919 -1.0632 -1.0377
  146ACTN    H3 1460   0.401   4.237   2.503  1.9535 -0.4284 -0.3493
  147ACTN    H6 1461   0.521   2.155   3.655 -0.4316  1.1119  1.1094
  147ACTN    C3 1462   0.532   2.206   3.559  0.0735 -0.6950  0.1939
  147ACTN    H4 1463   0.513   2.312   3.569 -0.6461 -0.4789 -2.8325
  147ACTN    H5 1464   0.452   2.175   3.492  0.7474  0.2964 -1.1062
  147ACTN    C2 1465   0.662   2.169   3.493  0.1508  0.4612  0.2957
  147ACTN    O1 1466   0.712   2.245   3.410 -0.2240  0.1265  0.6327
  147ACTN    C1 1467   0.722   2.038   3.531 -0.2127  0.0606 -0.0496
  147ACTN    H1 1468   0.829   2.053   3.548  0.1984 -0.6587 -1.8770
  147ACTN    H2 1469   0.706   1.975   3.443 -1.4987  0.3123  0.0050
  147ACTN    H3 1470   0.671   1.997   3.617  0.1487 -1.9311 -0.7496
  148ACTN    H6 1471   6.798   4.453   3.579  0.8328  1.2471 -0.3979
  148ACTN    C3 1472   6.873   4.465   3.656  0.8599 -0.3375 -0.1548
  148ACTN    H4 1473   6.842   4.555   3.708 -0.7993  0.0248 -1.7199
  148ACTN    H5 1474   6.877   4.379   3.722  2.3956  0.3491  0.6905
  148ACTN    C2 1475   7.018   4.480   3.597 -0.4498  0.0427  0.2971
  148ACTN    O1 1476   7.115   4.495   3.665 -0.4878 -0.3790 -0.2808
  148ACTN    C1 1477   7.025   4.516   3.451 -0.3522  0.7447 -0.1454
  148ACTN    H1 1478   6.956   4.453   3.395 -2.1372  1.4012  1.2653
  148ACTN    H2 1479   7.122   4.486   3.411 -0.9690 -0.4549 -0.7723
  148ACTN    H3 1480   7.009   4.623   3.433  1.6182  0.5072 -4.0171
  149ACTN    H6 1481   5.023   2.568   0.703 -0.5468 -0.3693 -0.8974
  149ACTN    C3 1482   5.084   2.479   0.723 -0.4636 -0.4098 -1.3231
  149ACTN    H4 1483   5.154   2.502   0.804  0.4224 -1.4935 -1.7771
  149ACTN    H5 1484   5.000   2.414   0.748 -1.8102  0.7289 -2.7605
  149ACTN    C2 1485   5.164   2.435   0.604 -0.5886 -0.3230 -0.1010
  149ACTN    O1 1486   5.111   2.386   0.504  0.5588 -0.2162  0.2729
  149ACTN    C1 1487   5.308   2.421   0.624 -0.8211  0.0710 -0.4417
  149ACTN    H1 1488   5.333   2.315   0.622 -2.1943 -0.3426  2.3246
  149ACTN    H2 1489   5.335   2.465   0.720 -0.1178 -0.2849 -0.4730
  149ACTN    H3 1490   5.366   2.471   0.546  0.7735 -0.2131  0.5366
  150ACTN    H6 1491   4.930   5.481   0.319  0.5532 -0.1278  4.6877
  150ACTN    C3 1492   5.012   5.411   0.302  0.1000  0.3753 -0.1027
  150ACTN    H4 1493   5.111   5.456   0.299 -0.2052  1.0904  0.4386
  150ACTN    H5 1494   5.018   5.348   0.391 -1.5954 -1.0597 -0.9736
  150ACTN    C2 1495   4.984   5.343   0.168  0.7368  0.5465  0.4083
  150ACTN    O1 1496   5.003   5.397   0.058 -0.2405 -0.0046  0.3441
  150ACTN    C1 1497   4.943   5.199   0.164  0.2761 -0.2693 -0.7646
  150ACTN    H1 1498   5.031   5.138   0.183  1.1384  0.9179 -0.9524
  150ACTN    H2 1499   4.900   5.165   0.070  1.4168  0.5098 -1.5667
  150ACTN    H3 1500   4.865   5.180   0.238  1.9804  4.5978  2.5409
  151ACTN    H6 1501   5.758   0.213   1.678 -1.9619  0.6987  0.3013
  151ACTN    C3 1502   5.785   0.278   1.761 -0.6107  0.1915  0.2602
  151ACTN    H4 1503   5.894   0.271   1.760 -0.6689 -0.8105 -1.3273
  151ACTN    H5 1504   5.754   0.381   1.741 -0.3166  0.2856  0.2728
  151ACTN    C2 1505   5.733   0.208   1.877 -0.6173 -0.0994 -0.0214
  151ACTN    O1 1506   5.776   0.244   1.987 -0.5999 -0.1460  0.2329
  151ACTN    C1 1507   5.661   0.081   1.862 -0.9301  0.6960 -0.8455
  151ACTN    H1 1508   5.596   0.066   1.949  1.0400  1.1328  0.7229
  151ACTN    H2 1509   5.733   0.000   1.854  1.6597  2.9427 -0.8346
  151ACTN    H3 1510   5.602   0.076   1.770 -0.7910 -2.6436 -0.7950
  152ACTN    H6 1511   6.041   0.903   4.185 -0.6833  0.2609  1.6389
  152ACTN    C3 1512   5.936   0.933   4.174 -0.7305 -0.2405  0.6632
  152ACTN    H4 1513   5.942   1.028   4.122  2.4468 -1.5601 -1.5377
  152ACTN    H5 1514   5.880   0.859   4.116 -1.3137  0.9948 -0.3517
  152ACTN    C2 1515   5.862   0.949   4.302  0.0146  0.0081 -0.1960
  152ACTN    O1 1516   5.817   1.058   4.339  0.3980 -0.2654  0.0444
  152ACTN    C1 1517   5.873   0.833   4.396 -0.3620  0.2952 -0.2619
  152ACTN    H1 1518   5.915   0.865   4.492  0.7908 -3.1972  0.4623
  152ACTN    H2 1519   5.930   0.743   4.371  2.4024  1.6006  1.0989
  152ACTN    H3 1520   5.773   0.794   4.411 -1.1698  2.4218  0.0634
  153ACTN    H6 1521   1.706   7.289   2.091  0.2316  0.3638 -0.6874
  153ACTN    C3 1522   1.678   7.288   2.196 -0.4307 -0.4325 -0.8674
  153ACTN    H4 1523   1.597   7.215   2.191  1.5021 -2.6615 -0.2962
  153ACTN    H5 1524   1.759   7.255   2.261 -0.9006 -0.5293 -0.3279
  153ACTN    C2 1525   1.616   7.409   2.260  0.9020 -0.5698 -0.1989
  153ACTN    O1 1526   1.497   7.418   2.297  0.3487 -0.3414  0.1822
  153ACTN    C1 1527   1.700   7.528   2.283 -0.6744  0.3463  0.6901
  153ACTN    H1 1528   1.722   7.553   2.387  2.4086  2.5608 -0.4251
  153ACTN    H2 1529   1.660   7.619   2.239 -2.5533 -0.3712  0.8666
  153ACTN    H3 1530   1.797   7.520   2.233 -0.4077  0.1015  1.2372
  154ACTN    H6 1531   6.893   2.786   0.949 -1.3491  0.5812 -0.2991
  154ACTN    C3 1532   6.882   2.693   0.892 -0.1934 -0.1585  0.6778
  154ACTN    H4 1533   6.846   2.621   0.966  0.3851 -1.5264 -0.3597
  154ACTN    H5 1534   6.983   2.662   0.865 -0.3789 -2.0950  2.1234
  154ACTN    C2 1535   6.799   2.726   0.776 -0.0850  0.4480 -0.3179
  154ACTN    O1 1536   6.840   2.698   0.662 -0.3158  0.2280  0.4161
  154ACTN    C1 1537   6.679   2.811   0.801 -0.4357 -0.3776 -0.0352
  154ACTN    H1 1538   6.609   2.818   0.718 -1.9098 -0.5931  1.1714
  154ACTN    H2 1539   6.710   2.909   0.838 -1.2339 -0.3812  0.6303
  154ACTN    H3 1540   6.624   2.770   0.885  1.0177 -0.3034  0.9776
  155ACTN    H6 1541   0.989   0.547   2.881  1.4307  1.5203 -0.0920
  155ACTN    C3 1542   1.041   0.476   2.817 -0.2949  0.1913 -0.0331
  155ACTN    H4 1543   1.047   0.379   2.867  0.4821  1.1145  1.6921
  155ACTN    H5 1544   1.142   0.513   2.803 -0.1832  0.4090  1.2900
  155ACTN    C2 1545   0.979   0.461   2.679  0.8072 -0.4359  0.2473
  155ACTN    O1 1546   0.929   0.353   2.654  0.4823 -0.5341  0.1678
  155ACTN    C1 1547   0.978   0.571   2.580 -0.1553 -0.7604  0.0854
  155ACTN    H1 1548   0.987   0.529   2.480 -0.0448 -1.6551  0.4725
  155ACTN    H2 1549   1.057   0.639   2.611 -1.6711 -0.3661  3.3131
  155ACTN    H3 1550   0.882   0.622   2.589  0.4981  0.5210 -0.0567
  156ACTN    H6 1551   1.527   0.332   1.888  0.4904  1.3687  1.8347
  156ACTN    C3 1552   1.531   0.240   1.947  0.3736  0.0335 -0.1541
  156ACTN    H4 1553   1.620   0.261   2.006  1.7245  0.2913 -2.2437
  156ACTN    H5 1554   1.439   0.223   2.003 -0.3007 -1.5626 -1.7325
  156ACTN    C2 1555   1.563   0.128   1.848  0.5355 -0.2849 -0.0520
  156ACTN    O1 1556   1.671   0.124   1.789 -0.6742 -0.0237  0.8794
  156ACTN    C1 1557   1.452   0.023   1.867 -0.1656  0.0924 -0.0178
  156ACTN    H1 1558   1.468  -0.026   1.963 -0.8237 -0.6462 -0.2886
  156ACTN    H2 1559   1.451  -0.048   1.784  1.0024  0.0548 -0.0126
  156ACTN    H3 1560   1.354   0.070   1.873 -0.4454 -0.8787  4.7265
  157ACTN    H6 1561   4.908   0.489   3.289 -0.6996  0.2903  0.8264
  157ACTN    C3 1562   4.885   0.577   3.348 -0.6232  0.5881  0.4142
  157ACTN    H4 1563   4.837   0.655   3.289  0.3873  0.4925 -0.5458
  157ACTN    H5 1564   4.820   0.557   3.433 -0.6804  1.5425  0.6057
  157ACTN    C2 1565   5.018   0.631   3.404  0.8829 -0.7853 -0.1141
  157ACTN    O1 1566   5.021   0.699   3.511  0.3248 -0.5502  0.3775
  157ACTN    C1 1567   5.136   0.627   3.319 -0.2111 -0.0871  0.3927
  157ACTN    H1 1568   5.223   0.616   3.384 -1.5994 -3.1385  1.8755
  157ACTN    H2 1569   5.136   0.717   3.258  0.0747  0.5317  1.3153
  157ACTN    H3 1570   5.132   0.539   3.254  0.1871  0.5522 -0.4987
  158ACTN    H6 1571   0.257   1.779   7.132 -0.3191 -0.9966 -1.5072
  158ACTN    C3 1572   0.157   1.804   7.096 -0.3671  0.2323 -0.5603
  158ACTN    H4 1573   0.093   1.717   7.109 -0.5225  0.5383  0.8169
  158ACTN    H5 1574   0.159   1.833   6.991  0.2215  2.0163 -0.0820
  158ACTN    C2 1575   0.102   1.921   7.169  0.1987  0.0515 -0.6094
  158ACTN    O1 1576   0.050   2.018   7.113  0.0350 -0.1159 -0.2260
  158ACTN    C1 1577   0.116   1.916   7.322 -0.0826  0.2222  0.0224
  158ACTN    H1 1578   0.012   1.921   7.356 -0.2642 -0.9721 -0.3179
  158ACTN    H2 1579   0.160   2.010   7.355 -0.0588 -0.1195  0.9872
  158ACTN    H3 1580   0.153   1.823   7.366 -2.2682 -0.0663  1.3493
  159ACTN    H6 1581   2.070   6.377   3.438  0.4206  0.7232  0.6453
  159ACTN    C3 1582   1.990   6.385   3.513  0.2613 -0.4972  0.6037
  159ACTN    H4 1583   1.947   6.284   3.518  1.2071 -0.9589 -0.3095
  159ACTN    H5 1584   2.033   6.410   3.609  1.6807  0.9279 -0.3763
  159ACTN    C2 1585   1.878   6.476   3.465 -0.4540  0.7888 -0.0075
  159ACTN    O1 1586   1.780   6.510   3.534  0.6529 -1.1503 -0.2278
  159ACTN    C1 1587   1.889   6.528   3.326  0.1676 -0.1767 -0.4578
  159ACTN    H1 1588   1.871   6.634   3.308  2.1557  0.3159  0.3829
  159ACTN    H2 1589   1.821   6.468   3.264  0.3136 -2.3947  1.4568
  159ACTN    H3 1590   1.984   6.511   3.275 -0.1250  0.5517 -1.2604
  160ACTN    H6 1591   2.660   2.483   5.169 -0.5434  1.7804 -0.2708
  160ACTN    C3 1592   2.685   2.475   5.063 -0.2885  0.6216 -0.1310
  160ACTN    H4 1593   2.701   2.371   5.033 -1.3673  0.0565  1.1726
  160ACTN    H5 1594   2.601   2.516   5.007 -1.0683  0.1361  0.6703
  160ACTN    C2 1595   2.800   2.555   5.030  1.0789  0.4417 -0.5700
  160ACTN    O1 1596   2.838   2.639   5.108 -0.3327 -0.3713 -0.6074
  160ACTN    C1 1597   2.889   2.537   4.913  0.3519 -0.4480  0.7529
  160ACTN    H1 1598   2.866   2.449   4.852  0.0281  0.2834 -0.1946
  160ACTN    H2 1599   2.994   2.533   4.940  0.9223  2.1514 -0.9391
  160ACTN    H3 1600   2.881   2.623   4.847  0.4870 -0.8439  0.2121
  161ACTN    H6 1601   0.328   0.661   4.404  2.7288  1.1993 -0.9764
  161ACTN    C3 1602   0.335   0.609   4.499  0.3104 -0.4063 -1.6277
  161ACTN    H4 1603   0.389   0.521   4.464  0.4403 -0.3918 -1.4691
  161ACTN    H5 1604   0.397   0.676   4.560  0.6481 -3.3220  1.4051
  161ACTN    C2 1605   0.203   0.562   4.554 -0.9051  0.0326 -0.0785
  161ACTN    O1 1606   0.180   0.551   4.674  0.3661 -0.1631  0.5115
  161ACTN    C1 1607   0.088   0.535   4.463  0.0345  0.1033 -0.5123
  161ACTN    H1 1608   0.121   0.558   4.362 -0.0374  1.4666 -0.2272
  161ACTN    H2 1609   0.004   0.600   4.488 -0.8803 -0.4505 -2.0932
  161ACTN    H3 1610   0.043   0.436   4.475  1.2049 -0.3535  0.1686
  162ACTN    H6 1611   0.898   5.930   5.386  0.2629 -0.2143 -0.5297
  162ACTN    C3 1612   0.891   6.031   5.347  0.3245  0.2544  0.6632
  162ACTN    H4 1613   0.812   6.097   5.384 -0.5248 -1.5339  2.1046
  162ACTN    H5 1614   0.984   6.081   5.372  0.0039  0.3231  1.7665
  162ACTN    C2 1615   0.873   6.011   5.197  0.7644  0.1778 -0.6622
  162ACTN    O1 1616   0.947   6.072   5.126 -0.2299  0.0260  0.4271
  162ACTN    C1 1617   0.760   5.934   5.137  0.8391 -0.2540  0.4257
  162ACTN    H1 1618   0.673   5.937   5.203  0.0023 -0.3282 -0.6535
  162ACTN    H2 1619   0.782   5.828   5.126  0.3863 -0.2368 -0.7440
  162ACTN    H3 1620   0.735   5.979   5.042 -0.6446  1.2582  1.5082
  163ACTN    H6 1621   1.496   6.302   0.694  0.7091 -0.0844  0.9161
  163ACTN    C3 1622   1.558   6.263   0.613 -0.2680  0.3166 -0.0395
  163ACTN    H4 1623   1.557   6.340   0.537 -0.6939  0.0496 -0.3066
  163ACTN    H5 1624   1.661   6.244   0.645  0.0369 -0.9267 -1.6953
  163ACTN    C2 1625   1.493   6.135   0.564  0.4142 -0.4548  0.3566
  163ACTN    O1 1626   1.550   6.028   0.555 -0.5113 -0.2043 -0.1640
  163ACTN    C1 1627   1.347   6.137   0.574  0.3552  0.2224  0.2495
  163ACTN    H1 1628   1.306   6.064   0.504  0.0301  2.0369 -1.5017
  163ACTN    H2 1629   1.294   6.226   0.538 -1.2501 -0.7859  0.0684
  163ACTN    H3 1630   1.317   6.119   0.678  1.1897 -0.7644  0.3277
  164ACTN    H6 1631   5.244   4.637   1.824  2.1801 -0.3579  1.1382
  164ACTN    C3 1632   5.219   4.532   1.834  0.0252 -0.0197 -0.3479
  164ACTN    H4 1633   5.251   4.470   1.749 -0.0330  0.1245 -0.4743
  164ACTN    H5 1634   5.279   4.500   1.919  0.9632 -0.0064 -0.9896
  164ACTN    C2 1635   5.070   4.520   1.851 -0.0516  0.0079  0.0994
  164ACTN    O1 1636   5.016   4.539   1.958  0.3587 -1.0189 -0.3780
  164ACTN    C1 1637   4.996   4.457   1.745  0.0042  0.0444  0.4839
  164ACTN    H1 1638   5.002   4.348   1.754  0.7739  0.2217  2.2263
  164ACTN    H2 1639   5.040   4.484   1.649 -0.6897 -0.8105 -0.0787
  164ACTN    H3 1640   4.891   4.487   1.745  0.4736  1.7519 -0.2822
  165ACTN    H6 1641   2.407   2.853   5.336  0.9235 -0.6716  0.2291
  165ACTN    C3 1642   2.350   2.794   5.264 -0.1728  0.2905  0.3026
  165ACTN    H4 1643   2.247   2.828   5.274 -0.8092 -1.9166  1.6054
  165ACTN    H5 1644   2.345   2.690   5.296 -0.4380  0.8228  2.0767
  165ACTN    C2 1645   2.392   2.814   5.114 -0.2834  0.1972  0.0688
  165ACTN    O1 1646   2.343   2.742   5.029  0.5897  0.4912 -0.2372
  165ACTN    C1 1647   2.511   2.893   5.088 -0.8639 -0.3569  0.3533
  165ACTN    H1 1648   2.600   2.834   5.071  0.3204  1.6817 -0.6820
  165ACTN    H2 1649   2.516   2.970   5.165 -2.8347  0.5209 -0.3451
  165ACTN    H3 1650   2.497   2.949   4.995 -2.0483 -1.9090 -0.4295
  166ACTN    H6 1651   5.438   7.099   6.279  0.4000  0.6638 -0.9009
  166ACTN    C3 1652   5.432   7.200   6.318 -0.1736  0.2576  0.0935
  166ACTN    H4 1653   5.511   7.201   6.393  1.1114 -0.9552 -1.2057
  166ACTN    H5 1654   5.461   7.271   6.240 -0.6835  0.4595  0.0895
  166ACTN    C2 1655   5.302   7.237   6.383  0.2823 -0.8476 -0.2189
  166ACTN    O1 1656   5.197   7.244   6.317  0.2299 -0.1180 -0.2004
  166ACTN    C1 1657   5.302   7.269   6.527  0.5075  0.3083  0.3421
  166ACTN    H1 1658   5.379   7.342   6.551  1.2559  0.0571 -1.2069
  166ACTN    H2 1659   5.331   7.183   6.588  1.9749 -0.1767 -1.0142
  166ACTN    H3 1660   5.202   7.296   6.561 -0.8197 -2.2882 -1.3262
  167ACTN    H6 1661   3.948   6.610   2.814 -1.9779  0.6803 -0.7176
  167ACTN    C3 1662   4.013   6.632   2.730 -0.2223  0.1133  0.4675
  167ACTN    H4 1663   4.084   6.708   2.762 -0.5628  0.0629  1.3423
  167ACTN    H5 1664   4.071   6.541   2.715 -2.0033 -1.1906  1.3862
  167ACTN    C2 1665   3.938   6.670   2.610 -0.5709  0.3111 -0.0687
  167ACTN    O1 1666   3.853   6.584   2.572 -0.2112 -0.2092  0.0722
  167ACTN    C1 1667   3.895   6.809   2.601  0.0152 -0.0101 -0.2030
  167ACTN    H1 1668   3.788   6.823   2.621 -0.4159  1.6880 -3.3078
  167ACTN    H2 1669   3.921   6.844   2.502  2.1928 -2.3188 -0.4844
  167ACTN    H3 1670   3.941   6.881   2.668  0.8135  0.4467 -1.2328
  168ACTN    H6 1671   6.291   4.057   4.137  2.1972 -1.8540 -0.5050
  168ACTN    C3 1672   6.281   4.076   4.031 -0.2678 -0.7766 -0.1098
  168ACTN    H4 1673   6.284   4.185   4.025  2.0646 -0.7448  0.9801
  168ACTN    H5 1674   6.372   4.048   3.979  0.4587 -3.1272  2.3564
  168ACTN    C2 1675   6.161   4.012   3.973  0.6156 -0.2060  0.3364
  168ACTN    O1 1676   6.133   4.038   3.859 -0.0521 -0.1473 -0.1022
  168ACTN    C1 1677   6.093   3.900   4.033  0.2883 -0.3324  0.4082
  168ACTN    H1 1678   6.169   3.835   4.077 -0.4011 -1.1243  0.4439
  168ACTN    H2 1679   6.040   3.838   3.960  2.2725  0.4068 -1.7060
  168ACTN    H3 1680   6.024   3.938   4.109  0.5778  3.7879 -1.2627
  169ACTN    H6 1681   0.030   1.192   6.108 -0.5975 -0.5813 -0.9068
  169ACTN    C3 1682   0.011   1.298   6.122 -0.4299 -0.7167  0.4085
  169ACTN    H4 1683   0.009   1.352   6.027 -0.5433  1.9104  1.8508
  169ACTN    H5 1684  -0.095   1.300   6.150 -0.1801  2.8439  1.4037
  169ACTN    C2 1685   0.101   1.378   6.209  0.0594  0.3055 -0.6893
  169ACTN    O1 1686   0.218   1.381   6.176  0.2134  0.3047  0.1661
  169ACTN    C1 1687   0.053   1.432   6.343  0.0815  0.0532  0.0530
  169ACTN    H1 1688   0.107   1.522   6.375  0.2282  0.4084 -1.1793
  169ACTN    H2 1689   0.066   1.350   6.414  0.1240  0.9262  1.0772
  169ACTN    H3 1690  -0.054   1.451   6.341  0.1685  0.4721 -0.8720
  170ACTN    H6 1691   3.171   1.846   3.093 -0.2606 -0.8755 -0.2705
  170ACTN    C3 1692   3.266   1.855   3.039  0.1350  0.0978  0.5672
  170ACTN    H4 1693   3.327   1.767   3.059  0.5578  0.0835 -0.7924
  170ACTN    H5 1694   3.235   1.850   2.935 -2.4867 -0.4428  1.3339
  170ACTN    C2 1695   3.333   1.982   3.075 -0.4432 -0.4318  0.4247
  170ACTN    O1 1696   3.261   2.082   3.091  0.6459  0.5898 -0.3308
  170ACTN    C1 1697   3.478   1.983   3.109  0.5449 -0.1515  0.0701
  170ACTN    H1 1698   3.505   2.087   3.125 -0.6937  0.3232 -0.8107
  170ACTN    H2 1699   3.543   1.943   3.032 -2.4399 -1.7143 -1.7351
  170ACTN    H3 1700   3.499   1.929   3.202 -1.1171  1.1552  1.2341
  171ACTN    H6 1701   6.437   6.686   2.914 -0.1425  1.1631 -0.3864
  171ACTN    C3 1702   6.546   6.681   2.923 -0.2366  0.0398  0.1827
  171ACTN    H4 1703   6.598   6.776   2.931  1.3151 -0.9671  2.6374
  171ACTN    H5 1704   6.570   6.633   3.018 -0.8020 -0.1937  0.2105
  171ACTN    C2 1705   6.603   6.602   2.807 -0.5603 -0.9731  0.0024
  171ACTN    O1 1706   6.684   6.651   2.728 -0.1230 -0.2193  0.4420
  171ACTN    C1 1707   6.559   6.458   2.784 -0.7211 -0.6713  0.3596
  171ACTN    H1 1708   6.582   6.430   2.682 -0.6362  0.7703 -0.0223
  171ACTN    H2 1709   6.455   6.441   2.811 -0.1037 -2.2115  1.8981
  171ACTN    H3 1710   6.615   6.398   2.856 -0.6841 -0.9106  0.1331
  172ACTN    H6 1711   4.850   6.854   6.265  0.4541 -1.0251 -2.0163
  172ACTN    C3 1712   4.949   6.899   6.257 -0.1394  0.7228 -0.1487
  172ACTN    H4 1713   4.996   6.928   6.351  0.2717  0.9004 -0.4044
  172ACTN    H5 1714   5.018   6.824   6.216 -1.7525 -1.3657  0.8716
  172ACTN    C2 1715   4.961   7.015   6.173  0.9365 -0.5390 -0.1716
  172ACTN    O1 1716   5.011   7.005   6.065 -0.6738  0.3842  0.3108
  172ACTN    C1 1717   4.892   7.149   6.215 -0.3228 -0.2897  0.7562
  172ACTN    H1 1718   4.804   7.167   6.153  0.7333  1.2395 -0.3546
  172ACTN    H2 1719   4.961   7.232   6.200  2.0200 -2.1301  1.1576
  172ACTN    H3 1720   4.852   7.150   6.316 -0.8189 -0.9506  0.5728
  173ACTN    H6 1721   2.159   5.534   1.455 -1.2395  1.8371 -4.1175
  173ACTN    C3 1722   2.057   5.516   1.489  0.2596  0.2424 -0.2181
  173ACTN    H4 1723   2.035   5.424   1.435 -0.5591 -0.6931  1.6809
  173ACTN    H5 1724   2.062   5.496   1.596  1.3107 -1.2442 -0.5281
  173ACTN    C2 1725   1.957   5.627   1.462  0.4824 -0.5454 -0.3893
  173ACTN    O1 1726   1.839   5.595   1.455 -0.3875 -0.4913 -0.6714
  173ACTN    C1 1727   1.987   5.768   1.508  0.1492  0.2206  0.1551
  173ACTN    H1 1728   1.910   5.798   1.579  1.9633  0.7718  1.9396
  173ACTN    H2 1729   1.991   5.833   1.421  1.8811 -1.3308 -0.9457
  173ACTN    H3 1730   2.079   5.780   1.566 -0.6901  1.3160  1.2764
  174ACTN    H6 1731   5.863   4.987   5.538 -0.7909  1.1332  2.1224
  174ACTN    C3 1732   5.782   4.917   5.559 -0.0611 -0.1750  0.6681
  174ACTN    H4 1733   5.813   4.860   5.646  1.0950  0.6320  0.7817
  174ACTN    H5 1734   5.695   4.975   5.589  0.1744 -0.3093  1.6373
  174ACTN    C2 1735   5.733   4.828   5.442 -0.8256 -0.4338 -0.9571
  174ACTN    O1 1736   5.709   4.878   5.336 -0.0218 -0.8844  0.6179
  174ACTN    C1 1737   5.737   4.685   5.468 -0.6318  0.6558 -0.2357
  174ACTN    H1 1738   5.686   4.624   5.393 -0.1771  1.3030 -1.0786
  174ACTN    H2 1739   5.685   4.669   5.563 -0.7281  0.3537 -0.3384
  174ACTN    H3 1740   5.837   4.640   5.467 -1.2863 -0.8284 -0.5165
  175ACTN    H6 1741   1.580   0.385   4.533 -0.2320  0.2459 -1.8221
  175ACTN    C3 1742   1.486   0.336   4.559  0.1128  0.4931 -0.0195
  175ACTN    H4 1743   1.458   0.284   4.468 -0.6354 -0.5190  0.7813
  175ACTN    H5 1744   1.497   0.266   4.642 -0.9272  0.1473 -0.1726
  175ACTN    C2 1745   1.390   0.449   4.586  0.3445  0.3965 -0.0565
  175ACTN    O1 1746   1.315   0.496   4.500 -0.0324  0.0225 -0.0247
  175ACTN    C1 1747   1.406   0.517   4.718 -0.4103 -0.1684  0.0536
  175ACTN    H1 1748   1.433   0.442   4.793  0.6613 -0.3949 -0.5441
  175ACTN    H2 1749   1.315   0.561   4.758  0.2370  3.2354 -1.9578
  175ACTN    H3 1750   1.481   0.596   4.710 -0.4254 -0.1116  0.4441
  176ACTN    H6 1751   0.476   3.538   4.957 -0.4996  1.2397  2.9986
  176ACTN    C3 1752   0.382   3.486   4.976 -0.3770 -0.1241  0.1924
  176ACTN    H4 1753   0.413   3.397   5.029  0.2610 -0.0926 -0.1130
  176ACTN    H5 1754   0.313   3.545   5.036 -1.8653 -0.6774 -0.9587
  176ACTN    C2 1755   0.309   3.460   4.849 -0.6312  0.0040 -0.3187
  176ACTN    O1 1756   0.374   3.437   4.747 -0.0019 -1.3000  0.3995
  176ACTN    C1 1757   0.161   3.450   4.858  0.1631 -0.1052  0.0741
  176ACTN    H1 1758   0.118   3.420   4.953 -0.1760  1.8199  0.5425
  176ACTN    H2 1759   0.127   3.386   4.776 -1.0289  0.8275 -0.1741
  176ACTN    H3 1760   0.129   3.550   4.831  2.4748  0.6733  0.0683
  177ACTN    H6 1761   5.055   0.391   4.967 -0.5760 -1.3260  1.5544
  177ACTN    C3 1762   5.153   0.402   5.013 -0.0715  0.3235  0.1385
  177ACTN    H4 1763   5.166   0.330   5.093 -1.3540  1.8550  1.7624
  177ACTN    H5 1764   5.230   0.389   4.937  0.2378  1.2320  0.2934
  177ACTN    C2 1765   5.164   0.531   5.078 -0.0608  0.2181  0.8170
  177ACTN    O1 1766   5.275   0.590   5.082  0.0035  0.7835 -0.4598
  177ACTN    C1 1767   5.050   0.578   5.153  0.0461 -0.0053  0.2806
  177ACTN    H1 1768   4.965   0.515   5.126 -1.3379  2.6004 -1.5962
  177ACTN    H2 1769   5.022   0.677   5.119  0.3153 -0.4018 -1.1164
  177ACTN    H3 1770   5.066   0.593   5.260  0.1374 -1.2696  0.4559
  178ACTN    H6 1771   7.027   1.758   5.552 -0.4849 -0.6231  1.5618
  178ACTN    C3 1772   7.135   1.755   5.534 -0.7476 -0.5286 -0.1254
  178ACTN    H4 1773   7.144   1.733   5.428 -1.9957  1.3890 -0.6520
  178ACTN    H5 1774   7.172   1.858   5.537  0.6520 -1.0485  1.5952
  178ACTN    C2 1775   7.231   1.658   5.596  0.1210 -0.4816 -0.4872
  178ACTN    O1 1776   7.231   1.539   5.572  0.1661  0.0499 -0.4662
  178ACTN    C1 1777   7.322   1.703   5.706 -0.0909  0.5008  0.2787
  178ACTN    H1 1778   7.248   1.709   5.786  1.1505 -0.0919  1.4919
  178ACTN    H2 1779   7.363   1.804   5.694  0.6920 -0.0152 -1.5017
  178ACTN    H3 1780   7.403   1.635   5.730  0.1877  0.8518  0.3417
  179ACTN    H6 1781   3.127   6.650   3.804 -1.5725 -1.1739  0.1396
  179ACTN    C3 1782   3.191   6.599   3.876 -0.1859  0.4884  0.1205
  179ACTN    H4 1783   3.295   6.602   3.843 -0.1268  1.8321  0.3864
  179ACTN    H5 1784   3.164   6.495   3.891  0.0190  0.2168 -1.3159
  179ACTN    C2 1785   3.186   6.686   3.997 -0.8048  0.2553  0.0477
  179ACTN    O1 1786   3.201   6.808   3.983  0.0248 -0.0799  0.2008
  179ACTN    C1 1787   3.160   6.622   4.129 -0.3416  0.6519  0.0989
  179ACTN    H1 1788   3.059   6.641   4.166 -0.1832  2.5466 -0.3814
  179ACTN    H2 1789   3.220   6.674   4.204 -0.2132  0.9410 -0.2096
  179ACTN    H3 1790   3.181   6.515   4.132 -0.9546  0.4172 -2.7802
  180ACTN    H6 1791   1.282   4.843   2.235  0.1153 -1.7081 -3.3748
  180ACTN    C3 1792   1.200   4.905   2.198 -0.4334  0.1224  0.6190
  180ACTN    H4 1793   1.242   4.946   2.107 -0.4485 -0.8655  0.1521
  180ACTN    H5 1794   1.122   4.837   2.162 -0.1221  0.3603 -0.5143
  180ACTN    C2 1795   1.147   5.001   2.306 -0.3031  0.1091  0.0932
  180ACTN    O1 1796   1.233   5.070   2.357 -0.6280  0.3573 -0.7850
  180ACTN    C1 1797   1.005   4.994   2.354 -0.0516 -0.4304  0.2029
  180ACTN    H1 1798   0.944   4.932   2.288 -0.9397 -0.4646  1.0530
  180ACTN    H2 1799   0.957   5.092   2.364 -2.3281 -1.5893  0.9935
  180ACTN    H3 1800   1.008   4.951   2.454 -0.2138 -0.7756  0.0591
  181ACTN    H6 1801   3.952   5.697   2.373  0.4572  0.3688 -1.0465
  181ACTN    C3 1802   4.013   5.746   2.448  0.0327 -0.1922 -0.3296
  181ACTN    H4 1803   4.069   5.668   2.499  1.2112 -0.2853 -1.7411
  181ACTN    H5 1804   4.088   5.811   2.404  1.3452 -0.7607  1.0351
  181ACTN    C2 1805   3.939   5.809   2.562 -0.5778 -0.2365 -0.7847
  181ACTN    O1 1806   3.819   5.806   2.573  0.0897 -0.1904  0.3769
  181ACTN    C1 1807   4.027   5.887   2.659  0.2811 -0.7793 -0.0120
  181ACTN    H1 1808   4.110   5.940   2.613  0.2208  1.3427  2.2789
  181ACTN    H2 1809   4.069   5.825   2.737 -0.5416 -0.6785  0.5230
  181ACTN    H3 1810   3.958   5.952   2.712  0.5135 -1.7741  1.5317
  182ACTN    H6 1811   4.350   0.097   4.318  1.2851 -1.4216  1.6365
  182ACTN    C3 1812   4.401   0.184   4.358 -0.1342  0.2073 -0.0334
  182ACTN    H4 1813   4.490   0.221   4.306 -0.4578  1.7422  0.4608
  182ACTN    H5 1814   4.331   0.268   4.355  0.7847  0.9803 -0.0410
  182ACTN    C2 1815   4.448   0.154   4.499  0.5325 -0.4086  0.7358
  182ACTN    O1 1816   4.423   0.042   4.540 -0.4522  0.2539 -0.2133
  182ACTN    C1 1817   4.535   0.251   4.573 -0.1780 -0.2393  0.0274
  182ACTN    H1 1818   4.633   0.207   4.589  0.5734  1.7293  1.0175
  182ACTN    H2 1819   4.499   0.281   4.672  1.7503  0.7056  0.4816
  182ACTN    H3 1820   4.548   0.340   4.511  4.4924  0.9119  2.4034
  183ACTN    H6 1821   7.301   1.712   5.982  2.5655 -0.6502  1.4334
  183ACTN    C3 1822   7.276   1.661   6.074 -0.8576 -0.0336  0.9209
  183ACTN    H4 1823   7.363   1.598   6.095 -1.3665 -1.5498 -1.3709
  183ACTN    H5 1824   7.272   1.739   6.150  0.0273  0.7174  0.2078
  183ACTN    C2 1825   7.148   1.576   6.060 -0.0452  0.1226 -0.6505
  183ACTN    O1 1826   7.160   1.474   5.991  0.2822  0.4457  0.1204
  183ACTN    C1 1827   7.014   1.606   6.123 -0.2698  0.2357  0.2386
  183ACTN    H1 1828   7.011   1.715   6.125 -2.2935  0.1827  1.6658
  183ACTN    H2 1829   7.006   1.573   6.227 -3.3106  3.1312  1.0262
  183ACTN    H3 1830   6.935   1.570   6.058  0.6190 -2.6068  0.6810
  184ACTN    H6 1831   3.851   2.129   3.975  0.2616 -2.1828  0.7415
  184ACTN    C3 1832   3.782   2.086   4.047 -1.3273 -0.5222  0.2502
  184ACTN    H4 1833   3.799   2.121   4.149  1.2205  0.3803 -0.4477
  184ACTN    H5 1834   3.678   2.095   4.015 -0.0233 -1.1994 -4.5956
  184ACTN    C2 1835   3.812   1.936   4.052  0.1900  0.2092  0.2697
  184ACTN    O1 1836   3.720   1.867   4.089 -0.0180 -0.0372 -0.0560
  184ACTN    C1 1837   3.950   1.887   4.027 -0.1615  0.3241  0.6333
  184ACTN    H1 1838   4.012   1.973   4.004 -0.8837  0.6325 -0.2318
  184ACTN    H2 1839   3.941   1.841   3.928  0.9821 -0.3162  0.8289
  184ACTN    H3 1840   3.989   1.805   4.087  1.1852 -0.2466 -0.9717
  185ACTN    H6 1841   4.684   4.973   0.362  0.2869  0.9030 -0.4400
  185ACTN    C3 1842   4.600   5.025   0.315 -0.2084 -0.1960 -0.7936
  185ACTN    H4 1843   4.622   5.051   0.212  0.5215 -0.7544 -0.7848
  185ACTN    H5 1844   4.511   4.962   0.304 -0.9125  0.9639 -1.7810
  185ACTN    C2 1845   4.555   5.144   0.394 -0.1384 -0.0308  0.0455
  185ACTN    O1 1846   4.647   5.212   0.437 -0.4026 -0.2752  0.6249
  185ACTN    C1 1847   4.410   5.178   0.394 -0.2067 -0.2106  0.0020
  185ACTN    H1 1848   4.361   5.088   0.433 -2.9791  0.3535 -2.0386
  185ACTN    H2 1849   4.365   5.197   0.297  0.9013 -0.1126 -0.4939
  185ACTN    H3 1850   4.401   5.259   0.467  3.6522 -0.3186  0.7073
  186ACTN    H6 1851   6.526   3.044   2.946  0.4427  0.3093  0.2677
  186ACTN    C3 1852   6.619   2.988   2.940  0.3678  0.2337 -0.1978
  186ACTN    H4 1853   6.649   2.951   3.038  0.1038  1.6842  0.4460
  186ACTN    H5 1854   6.597   2.901   2.878  1.4656  0.7081 -1.2742
  186ACTN    C2 1855   6.725   3.071   2.869  0.7658 -0.5792 -0.1770
  186ACTN    O1 1856   6.705   3.192   2.855  0.4697  0.1677 -0.2622
  186ACTN    C1 1857   6.852   3.002   2.823  0.2955 -0.4176 -0.3222
  186ACTN    H1 1858   6.835   2.937   2.737  0.1157  0.2384 -0.7920
  186ACTN    H2 1859   6.896   2.935   2.896  0.5421  1.4633  1.3023
  186ACTN    H3 1860   6.926   3.075   2.790 -0.2857  0.4465  0.2695
  187ACTN    H6 1861   6.723   6.835   5.059 -0.6619 -1.4852  1.2125
  187ACTN    C3 1862   6.683   6.792   4.967  0.3986  0.5167 -0.2242
  187ACTN    H4 1863   6.672   6.873   4.894 -0.7458  1.1016  0.5663
  187ACTN    H5 1864   6.754   6.721   4.926  0.1852  0.8202 -1.1465
  187ACTN    C2 1865   6.555   6.720   4.993  0.7111  0.4843 -0.1762
  187ACTN    O1 1866   6.451   6.739   4.931  0.2193  0.4409  0.6644
  187ACTN    C1 1867   6.570   6.591   5.070  0.0124  0.1743  0.7886
  187ACTN    H1 1868   6.677   6.567   5.066  0.3648  1.9186 -1.4543
  187ACTN    H2 1869   6.516   6.507   5.026  1.8869 -0.8975  0.4348
  187ACTN    H3 1870   6.529   6.613   5.168  0.6356  1.5045  0.7630
  188ACTN    H6 1871   6.615   6.145   3.196 -0.2596  0.4783 -0.4918
  188ACTN    C3 1872   6.674   6.152   3.105  0.5155  0.7814  0.0272
  188ACTN    H4 1873   6.632   6.107   3.015 -0.5025 -0.0750  0.9193
  188ACTN    H5 1874   6.687   6.258   3.084 -0.8891  1.1157  0.8115
  188ACTN    C2 1875   6.804   6.092   3.130 -0.3509 -0.0997  0.5251
  188ACTN    O1 1876   6.858   6.040   3.033 -0.2695 -0.5528 -0.2425
  188ACTN    C1 1877   6.868   6.096   3.262  0.2907 -0.1020  0.1423
  188ACTN    H1 1878   6.906   5.998   3.292 -1.0077 -0.4086  0.8157
  188ACTN    H2 1879   6.788   6.126   3.331  0.1887  1.6760 -0.7178
  188ACTN    H3 1880   6.944   6.174   3.266  0.0243  0.0908  1.9709
  189ACTN    H6 1881   6.112   5.251   2.330 -2.8446 -3.7331  2.4729
  189ACTN    C3 1882   6.084   5.331   2.398  0.6110  0.0432 -0.2583
  189ACTN    H4 1883   6.059   5.423   2.346 -0.3481  0.6795  1.2976
  189ACTN    H5 1884   5.994   5.286   2.440  2.4919 -2.9200  0.8260
  189ACTN    C2 1885   6.184   5.363   2.498  0.3056  0.7404 -0.7006
  189ACTN    O1 1886   6.274   5.288   2.532 -0.5076 -0.6123 -0.1840
  189ACTN    C1 1887   6.167   5.486   2.584 -0.4779  0.9470  0.9317
  189ACTN    H1 1888   6.172   5.476   2.692 -1.7140 -1.0824  0.8121
  189ACTN    H2 1889   6.076   5.536   2.550  0.2760  0.1711 -2.4640
  189ACTN    H3 1890   6.250   5.550   2.551  1.3251 -1.1124  1.3555
  190ACTN    H6 1891   4.405   0.677   4.659 -0.7387  0.4870  1.8209
  190ACTN    C3 1892   4.328   0.601   4.644 -0.4508  0.4716  0.2911
  190ACTN    H4 1893   4.357   0.525   4.572 -0.7865  2.0509 -1.5451
  190ACTN    H5 1894   4.320   0.555   4.743  0.4771  1.6433  0.9288
  190ACTN    C2 1895   4.201   0.649   4.587 -0.1910  1.0085 -0.5539
  190ACTN    O1 1896   4.134   0.580   4.513  0.2318  0.2438 -0.2828
  190ACTN    C1 1897   4.151   0.767   4.656 -0.4150  0.3798  0.2042
  190ACTN    H1 1898   4.208   0.854   4.626 -0.2542  0.2457  0.1193
  190ACTN    H2 1899   4.155   0.749   4.764  0.6074 -0.4932  0.0427
  190ACTN    H3 1900   4.051   0.799   4.630  0.8852  1.4940 -3.7378
  191ACTN    H6 1901   4.182   2.478   1.418  0.4396 -2.2416 -1.5255
  191ACTN    C3 1902   4.085   2.511   1.381  0.5654  0.0414  0.0897
  191ACTN    H4 1903   3.997   2.464   1.424  0.6101 -0.6879 -0.6076
  191ACTN    H5 1904   4.078   2.614   1.415 -0.7176  0.4936 -1.4611
  191ACTN    C2 1905   4.092   2.515   1.235 -0.5085  0.3965  0.1871
  191ACTN    O1 1906   4.159   2.600   1.184 -0.2297  0.0299  0.3835
  191ACTN    C1 1907   4.065   2.390   1.159 -0.2985 -0.8199  0.1133
  191ACTN    H1 1908   4.010   2.320   1.222  0.2999 -0.3608  1.1676
  191ACTN    H2 1909   4.155   2.338   1.125  0.8807  0.2244  1.5334
  191ACTN    H3 1910   4.007   2.409   1.069 -0.2335  0.6233  0.3576
  192ACTN    H6 1911   0.985   5.143   3.444  0.5590 -2.3362 -1.7714
  192ACTN    C3 1912   0.900   5.176   3.385 -0.5946 -0.7963  0.6321
  192ACTN    H4 1913   0.867   5.273   3.423  0.2713  0.7302 -2.3554
  192ACTN    H5 1914   0.932   5.186   3.281  1.6437  0.0321  1.3801
  192ACTN    C2 1915   0.789   5.073   3.386  0.1324 -0.2365 -0.0538
  192ACTN    O1 1916   0.811   4.951   3.368 -0.5947 -0.1695 -0.1911
  192ACTN    C1 1917   0.646   5.110   3.405 -0.1015  1.2185  0.4111
  192ACTN    H1 1918   0.624   5.081   3.508  1.7666 -0.9828  0.2417
  192ACTN    H2 1919   0.573   5.060   3.342 -0.3676  1.2661  0.6787
  192ACTN    H3 1920   0.621   5.216   3.402  2.7416  1.8907 -0.8122
  193ACTN    H6 1921   4.452   2.907   0.260 -0.8635 -0.0910 -0.0870
  193ACTN    C3 1922   4.431   2.821   0.197  0.2331 -0.2843 -0.2080
  193ACTN    H4 1923   4.323   2.818   0.181  0.4759 -1.6296 -1.7719
  193ACTN    H5 1924   4.460   2.851   0.096  1.6450  0.9161  0.5372
  193ACTN    C2 1925   4.484   2.692   0.236 -0.7088 -0.1453 -0.5375
  193ACTN    O1 1926   4.515   2.608   0.154  0.2713 -0.0835  0.2601
  193ACTN    C1 1927   4.532   2.668   0.379  0.2179 -0.7643  0.8221
  193ACTN    H1 1928   4.565   2.565   0.386 -0.0356 -0.8699  0.4945
  193ACTN    H2 1929   4.452   2.682   0.452  0.6767 -1.4258  1.4458
  193ACTN    H3 1930   4.608   2.741   0.408 -2.0611  3.8059 -3.7262
  194ACTN    H6 1931   7.081   0.709   4.308 -0.1247  1.9041  0.5535
  194ACTN    C3 1932   7.186   0.719   4.283 -0.0560  0.2016  0.1123
  194ACTN    H4 1933   7.238   0.625   4.303 -0.6362 -0.3884 -1.0940
  194ACTN    H5 1934   7.191   0.743   4.177  0.2849 -1.9331 -0.3738
  194ACTN    C2 1935   7.249   0.820   4.368 -0.5254 -0.2658  0.6068
  194ACTN    O1 1936   7.354   0.865   4.331 -0.5063 -0.9048  0.4242
  194ACTN    C1 1937   7.167   0.877   4.480  0.2283 -0.1409 -0.3950
  194ACTN    H1 1938   7.229   0.935   4.549  0.6169  0.8722 -1.5642
  194ACTN    H2 1939   7.106   0.804   4.533 -0.5735  0.0590 -1.0357
  194ACTN    H3 1940   7.097   0.950   4.438  0.2335  0.4257  0.5681
  195ACTN    H6 1941   2.602   0.279   4.667  0.1783  0.4668  0.8310
  195ACTN    C3 1942   2.553   0.376   4.657 -0.0161  0.2391 -0.4107
  195ACTN    H4 1943   2.594   0.437   4.737 -1.1197  2.2579 -1.3219
  195ACTN    H5 1944   2.582   0.421   4.561 -2.1974 -0.0660 -1.2449
  195ACTN    C2 1945   2.403   0.368   4.666 -0.2244 -0.0003 -0.4108
  195ACTN    O1 1946   2.344   0.473   4.681  0.3624 -0.4077 -0.2213
  195ACTN    C1 1947   2.332   0.238   4.650 -0.1371  0.3921  0.1109
  195ACTN    H1 1948   2.379   0.192   4.564  0.6019  1.4144 -0.0490
  195ACTN    H2 1949   2.233   0.261   4.612  0.6538  2.2764 -0.8644
  195ACTN    H3 1950   2.335   0.173   4.737  0.9960  0.1631 -0.0926
  196ACTN    H6 1951   2.137   4.906   5.194 -0.3482 -1.1480  0.9376
  196ACTN    C3 1952   2.234   4.877   5.154 -0.0661  0.1246  0.6515
  196ACTN    H4 1953   2.263   4.924   5.061 -1.0813 -1.1511 -0.3231
  196ACTN    H5 1954   2.310   4.897   5.230  0.7573 -0.8979  0.1100
  196ACTN    C2 1955   2.234   4.730   5.123 -0.4431 -0.3058  0.2922
  196ACTN    O1 1956   2.132   4.689   5.063  0.1392 -0.1221  0.1023
  196ACTN    C1 1957   2.340   4.643   5.175 -0.7427 -0.2035 -0.6391
  196ACTN    H1 1958   2.332   4.538   5.145  1.8451 -0.7591  0.4516
  196ACTN    H2 1959   2.351   4.631   5.283  1.0824 -0.8439 -0.8735
  196ACTN    H3 1960   2.434   4.687   5.140 -1.8536  1.5653 -1.4251
  197ACTN    H6 1961   1.902   6.509   4.150 -0.4468  1.8058  0.7172
  197ACTN    C3 1962   1.817   6.513   4.083  0.4635 -0.1004 -0.5821
  197ACTN    H4 1963   1.840   6.435   4.010  1.0824  0.8575 -1.4162
  197ACTN    H5 1964   1.735   6.479   4.146  1.5809  0.9854  1.4954
  197ACTN    C2 1965   1.785   6.651   4.024  0.0855  0.4442 -0.4607
  197ACTN    O1 1966   1.877   6.726   3.988  0.1244 -0.2600  0.5371
  197ACTN    C1 1967   1.648   6.711   4.054 -0.0877  0.4610  0.3649
  197ACTN    H1 1968   1.584   6.637   4.101 -2.2363  2.2710  0.3776
  197ACTN    H2 1969   1.597   6.745   3.964 -1.4935 -2.2664  0.0755
  197ACTN    H3 1970   1.659   6.794   4.125 -1.1662  0.5958  0.3784
  198ACTN    H6 1971   3.123   0.949   4.202 -0.9316 -0.6654 -1.0900
  198ACTN    C3 1972   3.036   0.968   4.265 -0.4819  0.6778 -0.8567
  198ACTN    H4 1973   2.954   0.992   4.196 -0.8870  1.9144  0.0363
  198ACTN    H5 1974   3.012   0.881   4.326  0.4425  1.3026  0.4030
  198ACTN    C2 1975   3.053   1.085   4.353 -0.3821 -0.4011  0.0627
  198ACTN    O1 1976   2.967   1.124   4.428 -0.3425  0.2909  0.2558
  198ACTN    C1 1977   3.195   1.132   4.365  0.4360  0.6517 -0.3379
  198ACTN    H1 1978   3.193   1.241   4.362  1.7412  0.7449  1.3371
  198ACTN    H2 1979   3.256   1.107   4.278 -3.2887 -1.4866 -2.4933
  198ACTN    H3 1980   3.247   1.098   4.455 -1.3809 -0.4549  0.3392
  199ACTN    H6 1981   2.103   3.000   4.486 -0.2990  0.7079  0.3693
  199ACTN    C3 1982   2.201   3.008   4.438 -0.1048 -0.7989  0.4873
  199ACTN    H4 1983   2.197   3.104   4.386 -0.1263 -0.0931  1.7529
  199ACTN    H5 1984   2.282   3.004   4.511  0.6031 -3.0968 -0.3828
  199ACTN    C2 1985   2.209   2.892   4.344  0.6246 -0.9185  0.0627
  199ACTN    O1 1986   2.214   2.781   4.395 -0.2996 -0.1816  0.3429
  199ACTN    C1 1987   2.223   2.926   4.199 -0.2239 -0.3540 -0.0712
  199ACTN    H1 1988   2.247   2.833   4.147  0.5298 -0.6095  0.7263
  199ACTN    H2 1989   2.303   2.999   4.189 -0.1293 -0.4933 -0.3272
  199ACTN    H3 1990   2.134   2.968   4.153  0.8129 -0.6269 -2.3798
  200ACTN    H6 1991   2.134   2.917   6.607 -1.2025 -2.3915 -2.0631
  200ACTN    C3 1992   2.080   2.872   6.690 -0.2788  0.1285  0.0180
  200ACTN    H4 1993   1.971   2.875   6.681 -0.2208 -0.8774 -1.2719
  200ACTN    H5 1994   2.099   2.765   6.679  2.2318  0.8566 -3.4067
  200ACTN    C2 1995   2.113   2.926   6.824  0.2272  0.6976  0.0463
  200ACTN    O1 1996   2.230   2.922   6.866  0.1506  0.4839 -0.3887
  200ACTN    C1 1997   2.015   3.005   6.904  0.2785 -0.6886 -1.2932
  200ACTN    H1 1998   1.938   2.950   6.959 -2.1222  2.0843 -1.7767
  200ACTN    H2 1999   1.964   3.072   6.835  0.0881  2.5655  1.8482
  200ACTN    H3 2000   2.061   3.072   6.977 -0.6638 -1.1961 -0.2234
  201ACTN    H6 2001   1.700   7.283   0.673 -0.1928  1.3588 -0.0571
  201ACTN    C3 2002   1.599   7.243   0.664  0.5404 -0.4383 -0.4896
  201ACTN    H4 2003   1.592   7.205   0.562  0.8201  1.1153 -1.0970
  201ACTN    H5 2004   1.586   7.164   0.738 -0.4961 -1.3797 -1.6667
  201ACTN    C2 2005   1.501   7.348   0.690  0.2105  0.2905 -0.4665
  201ACTN    O1 2006   1.543   7.461   0.701 -0.0588 -0.0407 -0.0296
  201ACTN    C1 2007   1.359   7.316   0.651 -0.5066  1.0135  0.2171
  201ACTN    H1 2008   1.347   7.325   0.543  0.3595  3.7064  0.3073
  201ACTN    H2 2009   1.280   7.374   0.700 -0.0059  2.6783 -0.8842
  201ACTN    H3 2010   1.350   7.209   0.665 -0.1536  0.9504 -0.0330
  202ACTN    H6 2011   3.536   6.760   3.856 -0.1830 -1.5364  0.1812
  202ACTN    C3 2012   3.639   6.775   3.888 -0.6407  0.9311  0.6236
  202ACTN    H4 2013   3.660   6.701   3.965  1.9769  0.0496 -0.8453
  202ACTN    H5 2014   3.699   6.756   3.799 -2.9878 -1.2120 -0.5479
  202ACTN    C2 2015   3.654   6.916   3.933 -0.2842 -0.3734  0.1660
  202ACTN    O1 2016   3.604   6.945   4.040 -0.0704 -0.1682  0.4973
  202ACTN    C1 2017   3.747   7.006   3.851  0.2126 -0.5046  0.0978
  202ACTN    H1 2018   3.712   7.001   3.748  0.2711 -0.0490  0.0593
  202ACTN    H2 2019   3.852   6.979   3.861  0.1518 -0.6888  0.2523
  202ACTN    H3 2020   3.727   7.109   3.879 -0.5000 -1.0019  1.4967
  203ACTN    H6 2021   4.909   3.462   2.164  0.8707  0.6881 -1.1321
  203ACTN    C3 2022   4.819   3.479   2.105  0.1553 -0.3554 -0.3660
  203ACTN    H4 2023   4.833   3.416   2.017 -2.8978 -0.8107 -0.5856
  203ACTN    H5 2024   4.731   3.452   2.163 -0.0867 -3.3781 -1.9930
  203ACTN    C2 2025   4.821   3.619   2.066 -0.3232  0.9085  0.3457
  203ACTN    O1 2026   4.860   3.701   2.149 -0.0283 -0.3820  0.2791
  203ACTN    C1 2027   4.725   3.651   1.957  0.1913  0.1061 -0.1402
  203ACTN    H1 2028   4.767   3.609   1.865 -0.7647 -0.6386 -0.2416
  203ACTN    H2 2029   4.713   3.758   1.944  1.3194 -0.0051 -2.3188
  203ACTN    H3 2030   4.626   3.609   1.977  0.0205  0.0100 -1.1520
  204ACTN    H6 2031   0.068   6.356   3.257  0.4009  0.0162 -0.2832
  204ACTN    C3 2032   0.009   6.312   3.178  0.1278  0.2613 -0.2160
  204ACTN    H4 2033  -0.059   6.232   3.207  1.3580 -0.6234  0.2612
  204ACTN    H5 2034  -0.055   6.387   3.130  0.8890  1.4250  0.5829
  204ACTN    C2 2035   0.103   6.251   3.071 -0.8439  0.0721 -1.3949
  204ACTN    O1 2036   0.135   6.307   2.966  0.5518  0.1395 -0.6617
  204ACTN    C1 2037   0.164   6.121   3.106  0.1420 -0.0121 -0.0614
  204ACTN    H1 2038   0.134   6.086   3.205  2.0287 -0.8729  0.2280
  204ACTN    H2 2039   0.272   6.128   3.105  0.0942  0.6936 -2.1224
  204ACTN    H3 2040   0.127   6.039   3.044 -1.9000 -0.0166  1.1173
  205ACTN    H6 2041   5.076   1.434   2.082 -0.3042  0.5416 -2.1727
  205ACTN    C3 2042   5.181   1.452   2.106 -0.6984  0.5420 -0.3512
  205ACTN    H4 2043   5.227   1.522   2.037 -1.8267  2.1070  0.4540
  205ACTN    H5 2044   5.176   1.489   2.209  1.7065  0.0727 -0.0326
  205ACTN    C2 2045   5.259   1.322   2.106  0.0473  0.4837  0.7134
  205ACTN    O1 2046   5.352   1.314   2.185 -0.3950 -0.0340 -0.0306
  205ACTN    C1 2047   5.222   1.200   2.026 -0.3916  0.0578 -0.4597
  205ACTN    H1 2048   5.222   1.231   1.922 -0.2216  0.1450 -0.4349
  205ACTN    H2 2049   5.124   1.168   2.059 -1.2273  2.5187 -0.4483
  205ACTN    H3 2050   5.294   1.119   2.042 -0.8359 -0.1561  0.4903
  206ACTN    H6 2051   5.983   6.100   1.967  1.1698  1.5920  2.3731
  206ACTN    C3 2052   6.081   6.056   1.947 -0.0981 -0.4984  0.3964
  206ACTN    H4 2053   6.158   6.133   1.950 -1.9147  1.3279  1.3983
  206ACTN    H5 2054   6.111   5.989   2.028 -2.3787  0.4313  2.0733
  206ACTN    C2 2055   6.083   5.984   1.820  0.1780 -0.0039 -0.1664
  206ACTN    O1 2056   6.187   5.917   1.790  0.3594 -0.1627  0.2953
  206ACTN    C1 2057   5.987   5.999   1.711 -0.2324  0.2148  0.0878
  206ACTN    H1 2058   5.938   5.906   1.682  1.0521  0.5837 -3.3999
  206ACTN    H2 2059   6.044   6.037   1.626 -2.8236 -0.7608 -2.1601
  206ACTN    H3 2060   5.910   6.068   1.747  2.2172  2.0127  2.1034
  207ACTN    H6 2061   0.755   5.135   5.784  1.9448 -0.2348 -1.1090
  207ACTN    C3 2062   0.696   5.121   5.693  0.1362  0.2753 -0.0539
  207ACTN    H4 2063   0.763   5.116   5.607  1.9553 -2.8541  1.4867
  207ACTN    H5 2064   0.665   5.018   5.706  0.7229  0.3211  1.8245
  207ACTN    C2 2065   0.584   5.220   5.679 -0.3497 -0.3681 -0.2452
  207ACTN    O1 2066   0.498   5.207   5.595 -0.0499  0.2369  0.0476
  207ACTN    C1 2067   0.585   5.351   5.761  0.1427 -0.2940 -0.6821
  207ACTN    H1 2068   0.481   5.371   5.786  0.5194  0.4182  0.3231
  207ACTN    H2 2069   0.617   5.427   5.690  1.9796 -1.8056 -1.5093
  207ACTN    H3 2070   0.648   5.339   5.849 -1.1990 -1.7806  0.0982
  208ACTN    H6 2071   0.767   0.658   4.360  0.2760  0.1296 -1.5734
  208ACTN    C3 2072   0.716   0.745   4.318 -0.7256  0.2847 -0.0505
  208ACTN    H4 2073   0.656   0.792   4.396  0.7325 -0.2842  1.4699
  208ACTN    H5 2074   0.798   0.812   4.293  0.0567 -0.7822 -0.3576
  208ACTN    C2 2075   0.620   0.704   4.213 -0.1767 -0.1412 -0.6117
  208ACTN    O1 2076   0.549   0.601   4.224  0.2370 -0.1768 -0.1423
  208ACTN    C1 2077   0.618   0.777   4.087 -0.0114  0.2087  0.4958
  208ACTN    H1 2078   0.682   0.865   4.087 -0.5788  0.6339  1.9525
  208ACTN    H2 2079   0.513   0.800   4.069  0.2281  1.3796  0.5825
  208ACTN    H3 2080   0.655   0.709   4.010 -1.6502 -0.4007  0.2327
  209ACTN    H6 2081   5.339   0.843   4.600  3.2066 -0.1362  0.4801
  209ACTN    C3 2082   5.336   0.893   4.503  0.1121 -0.4576  0.3586
  209ACTN    H4 2083   5.255   0.846   4.448  0.4244  0.1977 -0.6825
  209ACTN    H5 2084   5.333   1.002   4.502 -0.5552 -0.4826 -0.8638
  209ACTN    C2 2085   5.468   0.864   4.439 -0.5357 -0.5841  0.6295
  209ACTN    O1 2086   5.563   0.860   4.520  0.2265  0.0122 -0.0324
  209ACTN    C1 2087   5.497   0.882   4.292 -0.2312  0.2203  0.0202
  209ACTN    H1 2088   5.587   0.826   4.266 -1.5477 -3.0941  2.3397
  209ACTN    H2 2089   5.501   0.986   4.258 -0.8260  0.2543  0.0563
  209ACTN    H3 2090   5.418   0.835   4.233 -0.1889  1.1073 -0.7585
  210ACTN    H6 2091   2.342   4.785   2.405 -1.1626  1.4039  0.5970
  210ACTN    C3 2092   2.313   4.715   2.483 -0.8978  0.5471 -0.0596
  210ACTN    H4 2093   2.204   4.717   2.493 -0.8994 -1.4307  0.5441
  210ACTN    H5 2094   2.339   4.613   2.456 -0.8470  0.7579 -0.8187
  210ACTN    C2 2095   2.389   4.725   2.615 -0.6996  0.2606  0.2786
  210ACTN    O1 2096   2.346   4.774   2.719  0.3055  0.6364  0.1374
  210ACTN    C1 2097   2.536   4.686   2.614  0.1378 -0.4272 -0.4222
  210ACTN    H1 2098   2.601   4.769   2.639  0.7112 -0.0212 -3.1021
  210ACTN    H2 2099   2.565   4.645   2.517  0.6641  1.7297 -1.1953
  210ACTN    H3 2100   2.541   4.610   2.692  0.9357 -0.1124 -0.1662
  211ACTN    H6 2101   0.569   6.404   0.779 -2.1691  1.4620  1.9937
  211ACTN    C3 2102   0.613   6.496   0.740 -0.1173 -0.4148 -0.2641
  211ACTN    H4 2103   0.548   6.583   0.734 -0.4414 -0.5394  1.2444
  211ACTN    H5 2104   0.702   6.513   0.800 -0.7752 -1.6976  1.1179
  211ACTN    C2 2105   0.638   6.482   0.592  0.1475  0.6225 -0.0592
  211ACTN    O1 2106   0.743   6.438   0.546 -0.1803  0.5929 -0.0325
  211ACTN    C1 2107   0.546   6.536   0.497 -0.4366  0.1512 -0.5006
  211ACTN    H1 2108   0.521   6.640   0.518  1.8008  0.4042  1.0861
  211ACTN    H2 2109   0.461   6.471   0.518  0.6199 -1.1047 -0.0052
  211ACTN    H3 2110   0.573   6.523   0.393  1.6837  0.8173 -0.0608
  212ACTN    H6 2111   3.577   6.727   4.206 -2.3903  0.0227 -1.8710
  212ACTN    C3 2112   3.525   6.697   4.297  0.4982 -0.0975 -0.1743
  212ACTN    H4 2113   3.427   6.744   4.287  1.0744  1.4778  1.3152
  212ACTN    H5 2114   3.531   6.589   4.309  2.7030 -0.2373 -2.3747
  212ACTN    C2 2115   3.589   6.776   4.405 -0.0113 -0.7112  0.0813
  212ACTN    O1 2116   3.598   6.899   4.411  0.0529 -0.0493  0.8254
  212ACTN    C1 2117   3.644   6.708   4.527  0.2653  0.2668  0.9730
  212ACTN    H1 2118   3.680   6.780   4.600  0.2537  0.2437  1.0023
  212ACTN    H2 2119   3.725   6.650   4.484  0.7486  1.0526  0.8187
  212ACTN    H3 2120   3.566   6.647   4.574  1.4320 -1.5155  0.6634
  213ACTN    H6 2121   5.275   2.939   4.270  0.4548 -0.5644  2.4432
  213ACTN    C3 2122   5.366   2.889   4.236  0.1115  0.5428 -0.2816
  213ACTN    H4 2123   5.343   2.841   4.141 -3.1787  0.1020  0.6889
  213ACTN    H5 2124   5.453   2.953   4.221  1.5997 -1.6098 -1.1577
  213ACTN    C2 2125   5.392   2.782   4.342  0.1716  0.1576 -0.3062
  213ACTN    O1 2126   5.467   2.800   4.438 -0.2709 -1.0003 -0.0047
  213ACTN    C1 2127   5.279   2.679   4.357 -0.3512  0.5496 -0.1684
  213ACTN    H1 2128   5.189   2.698   4.299  0.8816  0.6191 -2.1039
  213ACTN    H2 2129   5.243   2.687   4.459  0.1114 -2.5439  0.2894
  213ACTN    H3 2130   5.310   2.576   4.338 -1.6143  0.2117 -0.4296
  214ACTN    H6 2131   4.040   4.937   0.749  1.8754  1.0618 -1.9003
  214ACTN    C3 2132   4.040   5.010   0.830  0.5332 -0.2268 -0.7264
  214ACTN    H4 2133   4.141   5.043   0.856 -0.1838  2.3503 -1.0315
  214ACTN    H5 2134   3.996   5.102   0.791  1.0709  2.2348  4.0811
  214ACTN    C2 2135   3.959   4.953   0.944 -0.5288 -0.4184 -0.6656
  214ACTN    O1 2136   4.006   4.952   1.054 -0.4118 -0.1033  0.3154
  214ACTN    C1 2137   3.836   4.891   0.925 -0.1556  0.2321  0.7566
  214ACTN    H1 2138   3.804   4.899   0.821  1.6113 -1.0614  0.0806
  214ACTN    H2 2139   3.758   4.939   0.984 -0.3206  1.8954 -0.7803
  214ACTN    H3 2140   3.841   4.784   0.949 -2.3101 -0.4361 -1.5392
  215ACTN    H6 2141   5.564   2.388   6.666  3.9182  1.2092 -0.5841
  215ACTN    C3 2142   5.599   2.344   6.759 -0.0172 -0.6380  0.1194
  215ACTN    H4 2143   5.702   2.311   6.745  0.0693  1.0990 -3.9799
  215ACTN    H5 2144   5.602   2.430   6.826  1.3747 -0.2512 -0.4338
  215ACTN    C2 2145   5.510   2.225   6.791 -0.2176  0.1633  0.1114
  215ACTN    O1 2146   5.491   2.135   6.706 -0.2566  0.4565  0.4750
  215ACTN    C1 2147   5.472   2.194   6.931  0.6325  0.5678  0.5342
  215ACTN    H1 2148   5.532   2.109   6.963  0.1460 -0.7085 -1.8547
  215ACTN    H2 2149   5.371   2.151   6.935  0.7276  0.3617  0.7381
  215ACTN    H3 2150   5.476   2.276   7.003  0.4558  1.5575 -0.5731
  216ACTN    H6 2151   3.245   6.373   3.294 -0.6842 -1.8413 -1.2264
  216ACTN    C3 2152   3.286   6.292   3.355  0.3671 -0.1940  0.3251
  216ACTN    H4 2153   3.212   6.213   3.366  0.7714 -0.2663  2.6573
  216ACTN    H5 2154   3.379   6.259   3.308  0.1035  1.4911 -1.4872
  216ACTN    C2 2155   3.321   6.341   3.498 -0.4455  0.0615  0.1504
  216ACTN    O1 2156   3.263   6.443   3.539 -0.0487 -0.3355  0.0622
  216ACTN    C1 2157   3.358   6.233   3.595 -0.0003  0.0662 -1.1947
  216ACTN    H1 2158   3.439   6.256   3.664 -1.0493 -0.5691  0.2555
  216ACTN    H2 2159   3.372   6.134   3.550 -0.8495  0.1642 -1.6920
  216ACTN    H3 2160   3.272   6.225   3.661  0.5838  0.3824 -0.3919
  217ACTN    H6 2161   5.597   0.462   5.364 -0.8392  1.5677 -0.2651
  217ACTN    C3 2162   5.653   0.472   5.271 -0.4865  0.5524 -0.1632
  217ACTN    H4 2163   5.647   0.576   5.242 -1.9524  0.4950 -0.0799
  217ACTN    H5 2164   5.761   0.465   5.287 -0.6971  0.2421  1.2326
  217ACTN    C2 2165   5.616   0.374   5.169  0.6143 -0.3380 -0.5394
  217ACTN    O1 2166   5.695   0.356   5.078 -0.0649  0.2086 -0.0890
  217ACTN    C1 2167   5.474   0.328   5.152  0.0591  0.0589 -0.3318
  217ACTN    H1 2168   5.435   0.285   5.245  0.3144  0.1546 -0.1779
  217ACTN    H2 2169   5.476   0.260   5.067  2.1396 -2.4607  1.6280
  217ACTN    H3 2170   5.407   0.411   5.133  1.8441  1.2507 -1.5991
  218ACTN    H6 2171   0.791   4.977   1.119 -0.4219 -1.1534 -0.1154
  218ACTN    C3 2172   0.833   4.999   1.021 -0.4737 -0.0611  0.1047
  218ACTN    H4 2173   0.819   4.907   0.964 -0.3309 -0.2438  0.3623
  218ACTN    H5 2174   0.941   5.004   1.039 -0.4133  0.4195 -0.3796
  218ACTN    C2 2175   0.785   5.125   0.956  0.0795  0.7476 -0.4166
  218ACTN    O1 2176   0.715   5.205   1.020  0.3145 -0.8523  0.1598
  218ACTN    C1 2177   0.804   5.147   0.809 -0.8894 -0.2907 -0.0656
  218ACTN    H1 2178   0.907   5.169   0.782 -0.6048 -0.0143  1.2267
  218ACTN    H2 2179   0.745   5.235   0.784 -0.1554  0.5959  1.2945
  218ACTN    H3 2180   0.772   5.061   0.750 -2.7997 -0.9900  1.9299
  219ACTN    H6 2181   2.965   5.793   2.701  1.2262 -0.4969  0.9813
  219ACTN    C3 2182   2.929   5.888   2.739  0.2771 -0.2530 -0.4913
  219ACTN    H4 2183   2.822   5.884   2.759  0.4050 -0.2249  0.1866
  219ACTN    H5 2184   2.986   5.911   2.828  2.1685 -2.4794 -1.0725
  219ACTN    C2 2185   2.946   6.003   2.638  0.7204  0.2601  0.0337
  219ACTN    O1 2186   2.873   6.002   2.538 -0.0321  0.5044  0.2928
  219ACTN    C1 2187   3.024   6.127   2.671 -0.2569  0.3187  0.6457
  219ACTN    H1 2188   3.080   6.117   2.764  1.9829  0.3279 -0.6645
  219ACTN    H2 2189   2.950   6.205   2.688 -0.9944 -0.0953 -0.5781
  219ACTN    H3 2190   3.093   6.158   2.593 -0.3778 -1.0299 -0.0175
  220ACTN    H6 2191   6.307   1.674   5.138 -0.0669  0.8192  1.3992
  220ACTN    C3 2192   6.397   1.701   5.193  0.2771  0.4524  1.0273
  220ACTN    H4 2193   6.366   1.755   5.283 -0.8468 -0.7852  1.3925
  220ACTN    H5 2194   6.459   1.617   5.223 -0.6967 -0.2593  1.0435
  220ACTN    C2 2195   6.485   1.794   5.115  0.4557  0.5940 -0.6258
  220ACTN    O1 2196   6.573   1.751   5.040 -0.5853  0.0085  0.7087
  220ACTN    C1 2197   6.487   1.936   5.139  0.6063 -0.1029  0.1069
  220ACTN    H1 2198   6.567   1.952   5.210 -0.0477  1.6348  0.4813
  220ACTN    H2 2199   6.390   1.964   5.180  0.5380  0.8521 -0.6903
  220ACTN    H3 2200   6.499   1.995   5.048 -0.9424 -1.2312 -0.8646
  221ACTN    H6 2201   1.792   5.751   2.892  2.7922  0.6728  1.3208
  221ACTN    C3 2202   1.769   5.857   2.895  0.3185  0.2163  0.0954
  221ACTN    H4 2203   1.693   5.873   2.819  1.2295 -1.0959 -1.1139
  221ACTN    H5 2204   1.723   5.868   2.994 -0.7598 -2.8539 -0.0369
  221ACTN    C2 2205   1.894   5.940   2.861 -0.2921 -0.2284 -0.6276
  221ACTN    O1 2206   1.881   6.025   2.772  0.2541 -0.2591 -0.1462
  221ACTN    C1 2207   2.032   5.898   2.908 -0.8859  0.1718 -0.0326
  221ACTN    H1 2208   2.070   5.981   2.968  0.2836 -1.4884  1.5702
  221ACTN    H2 2209   2.100   5.883   2.825 -1.3308 -0.9179 -0.2051
  221ACTN    H3 2210   2.026   5.810   2.973  0.9069 -0.3924 -0.6050
  222ACTN    H6 2211   0.467   0.101   6.448  0.0398  0.0780  1.0593
  222ACTN    C3 2212   0.552   0.039   6.420 -0.6433 -0.4663  0.1720
  222ACTN    H4 2213   0.580   0.088   6.327 -3.3725  0.1306 -0.3899
  222ACTN    H5 2214   0.634   0.049   6.491 -1.1114 -0.2371  0.6847
  222ACTN    C2 2215   0.497  -0.104   6.407 -0.5405  0.1145  0.0264
  222ACTN    O1 2216   0.481  -0.182   6.503 -0.5507  0.3558  0.3955
  222ACTN    C1 2217   0.483  -0.163   6.276  0.7420  0.7513  0.9523
  222ACTN    H1 2218   0.545  -0.106   6.207  1.2122  1.6626  2.1100
  222ACTN    H2 2219   0.379  -0.175   6.246  1.2801 -1.2090 -0.2261
  222ACTN    H3 2220   0.521  -0.265   6.271 -0.5791  0.3536 -1.8969
  223ACTN    H6 2221   2.512   0.292   0.900 -0.6423  0.6744  0.3423
  223ACTN    C3 2222   2.422   0.252   0.853  0.3046 -0.3670 -0.6452
  223ACTN    H4 2223   2.346   0.273   0.928  1.0601  3.5086 -0.8199
  223ACTN    H5 2224   2.432   0.146   0.834 -0.9251 -0.6229  0.1017
  223ACTN    C2 2225   2.376   0.343   0.748  0.7507 -0.0026  0.1065
  223ACTN    O1 2226   2.455   0.427   0.702  0.3941  0.3758  0.8318
  223ACTN    C1 2227   2.236   0.339   0.689  0.0919 -0.0552  0.1812
  223ACTN    H1 2228   2.156   0.337   0.764  0.8260  1.3107  1.0180
  223ACTN    H2 2229   2.226   0.250   0.628 -4.4455  2.3491 -2.9139
  223ACTN    H3 2230   2.220   0.427   0.627  4.8504 -0.3177 -1.6021
  224ACTN    H6 2231   1.132   5.547   6.184  0.6380  1.2641 -1.5981
  224ACTN    C3 2232   1.064   5.631   6.200 -0.1822  0.3350 -0.0881
  224ACTN    H4 2233   1.126   5.720   6.187 -1.5554  1.6632  2.1713
  224ACTN    H5 2234   0.999   5.628   6.113 -1.2714  1.1338  0.6833
  224ACTN    C2 2235   1.003   5.625   6.336 -0.4767 -0.4090  0.4181
  224ACTN    O1 2236   1.020   5.539   6.420  0.7212 -0.2552 -0.6199
  224ACTN    C1 2237   0.926   5.746   6.377 -0.8630  0.1981  0.1285
  224ACTN    H1 2238   0.919   5.812   6.291  0.7030 -0.2271 -0.3572
  224ACTN    H2 2239   0.973   5.804   6.456  0.3263 -0.0147 -0.4024
  224ACTN    H3 2240   0.828   5.718   6.415 -1.6996 -0.4425 -2.3586
  225ACTN    H6 2241   6.319   3.455   5.135  0.1248  1.0505  0.5846
  225ACTN    C3 2242   6.326   3.516   5.044  0.6105  0.1118 -0.0083
  225ACTN    H4 2243   6.250   3.593   5.041  2.4625  1.9290 -3.6722
  225ACTN    H5 2244   6.317   3.454   4.955  1.0464  0.2225 -0.1309
  225ACTN    C2 2245   6.452   3.585   5.033  0.4475  0.4278  0.1148
  225ACTN    O1 2246   6.459   3.661   4.940 -0.1459  0.0885  0.2317
  225ACTN    C1 2247   6.565   3.535   5.116  1.0323  0.0667 -0.2794
  225ACTN    H1 2248   6.543   3.562   5.219  1.2191 -0.6695 -0.0456
  225ACTN    H2 2249   6.661   3.584   5.096  0.8109 -0.3305 -2.3829
  225ACTN    H3 2250   6.566   3.427   5.127 -2.1149  0.0172 -0.0869
  226ACTN    H6 2251   0.587   0.087   2.796  0.9196  0.0354 -1.3359
  226ACTN    C3 2252   0.538   0.184   2.804  0.5696 -0.2616  0.0831
  226ACTN    H4 2253   0.503   0.218   2.707  0.7180  0.5912  0.3233
  226ACTN    H5 2254   0.450   0.171   2.868  0.4456  0.9419  0.1755
  226ACTN    C2 2255   0.620   0.288   2.869 -0.0332 -0.0734  0.3425
  226ACTN    O1 2256   0.575   0.407   2.864  0.2780 -0.0024 -0.4985
  226ACTN    C1 2257   0.751   0.246   2.927 -0.1690 -0.5337 -0.1671
  226ACTN    H1 2258   0.741   0.178   3.011 -0.2868 -1.4049 -0.8717
  226ACTN    H2 2259   0.806   0.332   2.965 -0.8132  0.2751 -1.0352
  226ACTN    H3 2260   0.820   0.207   2.852 -0.5765 -3.2208  0.8177
  227ACTN    H6 2261   6.988   7.060   5.386 -1.1899  0.2042  0.3236
  227ACTN    C3 2262   6.938   7.049   5.290  0.1021 -0.8256 -0.2455
  227ACTN    H4 2263   6.867   7.130   5.277  0.3017 -0.5868  0.1268
  227ACTN    H5 2264   7.014   7.051   5.212 -1.0310 -3.2741 -1.4764
  227ACTN    C2 2265   6.885   6.915   5.274  0.0465  0.0931 -0.0974
  227ACTN    O1 2266   6.766   6.902   5.290 -0.2359  0.4372  0.3870
  227ACTN    C1 2267   6.966   6.789   5.241  0.1197 -0.0910  0.2026
  227ACTN    H1 2268   7.068   6.826   5.229 -0.2366  1.0155  0.5147
  227ACTN    H2 2269   6.944   6.741   5.146  2.9710  0.5481 -0.8576
  227ACTN    H3 2270   6.964   6.716   5.322  2.2379  1.5578  1.8545
  228ACTN    H6 2271   6.417   4.665   4.983  0.1751 -2.0397 -2.1295
  228ACTN    C3 2272   6.443   4.732   4.901  0.2120 -0.1829 -0.6399
  228ACTN    H4 2273   6.516   4.682   4.839  0.8474  0.1919 -0.2019
  228ACTN    H5 2274   6.359   4.751   4.834  1.6223  1.3255 -2.0294
  228ACTN    C2 2275   6.505   4.861   4.963  0.3889 -0.9590  0.0114
  228ACTN    O1 2276   6.595   4.858   5.045 -0.0948  0.5217  0.0465
  228ACTN    C1 2277   6.441   4.996   4.937 -0.9469  0.4515 -0.3063
  228ACTN    H1 2278   6.497   5.077   4.984  0.4481  0.0011 -1.1468
  228ACTN    H2 2279   6.335   5.000   4.960 -0.6079 -1.1850  1.6940
  228ACTN    H3 2280   6.443   5.026   4.832  1.5416 -2.1165 -1.0572
  229ACTN    H6 2281   0.353   6.707   6.159  0.0658 -0.5522 -1.2843
  229ACTN    C3 2282   0.328   6.811   6.137 -0.5951 -0.5844 -0.6827
  229ACTN    H4 2283   0.235   6.824   6.082 -0.6026  1.6970 -0.2053
  229ACTN    H5 2284   0.324   6.858   6.236 -1.9431 -1.8372 -0.1222
  229ACTN    C2 2285   0.443   6.868   6.054 -0.2492  0.0760  0.1807
  229ACTN    O1 2286   0.561   6.850   6.077 -0.1518  0.4095  0.4611
  229ACTN    C1 2287   0.407   6.956   5.937  0.4904 -0.4076  0.0515
  229ACTN    H1 2288   0.347   6.896   5.868  1.0041 -1.6415  0.6517
  229ACTN    H2 2289   0.488   7.004   5.883  0.6015 -1.6801 -0.9399
  229ACTN    H3 2290   0.338   7.031   5.975  0.7065 -0.1730 -0.0199
  230ACTN    H6 2291   3.143   7.214   2.825 -0.0112 -2.5196 -1.6717
  230ACTN    C3 2292   3.164   7.149   2.910  0.1861  0.2007  0.4252
  230ACTN    H4 2293   3.096   7.177   2.991  0.5660  0.4729  0.6531
  230ACTN    H5 2294   3.140   7.047   2.881  1.3274 -0.8537  3.0129
  230ACTN    C2 2295   3.306   7.168   2.938  0.2776  0.2947 -0.4864
  230ACTN    O1 2296   3.372   7.069   2.962 -0.9291 -0.5087  0.4074
  230ACTN    C1 2297   3.351   7.290   3.009  0.2055  0.1740 -0.4437
  230ACTN    H1 2298   3.406   7.359   2.945 -1.4683  1.4650 -0.5336
  230ACTN    H2 2299   3.393   7.279   3.109 -0.5760  0.5174 -0.0683
  230ACTN    H3 2300   3.255   7.335   3.034 -1.4303 -2.4641 -1.7785
  231ACTN    H6 2301   3.301   0.120   5.972 -0.0943  0.6330  1.3602
  231ACTN    C3 2302   3.315   0.031   6.034 -0.3980 -0.6799 -0.4015
  231ACTN    H4 2303   3.362  -0.044   5.971 -0.5430 -0.0891 -1.2221
  231ACTN    H5 2304   3.394   0.060   6.103 -1.3813  1.2614 -0.0488
  231ACTN    C2 2305   3.202  -0.008   6.119 -0.6496  0.7906  0.6623
  231ACTN    O1 2306   3.176   0.039   6.230  0.1615  0.6489  0.7314
  231ACTN    C1 2307   3.082  -0.063   6.050  0.3732  0.4962  0.6306
  231ACTN    H1 2308   3.107  -0.145   5.983  0.0791 -0.1200  1.2734
  231ACTN    H2 2309   3.049   0.017   5.983  2.0257  0.1565 -0.6311
  231ACTN    H3 2310   2.993  -0.090   6.107 -1.3371 -1.2401 -2.7678
  232ACTN    H6 2311   0.737   2.835   4.421 -0.1870  0.4510  0.1865
  232ACTN    C3 2312   0.742   2.753   4.492  0.4646  0.0678 -0.3031
  232ACTN    H4 2313   0.845   2.716   4.486  0.0633 -1.0609 -0.3892
  232ACTN    H5 2314   0.731   2.802   4.589  1.9372  1.5571 -0.8621
  232ACTN    C2 2315   0.636   2.660   4.462  0.5846  0.9315 -0.5571
  232ACTN    O1 2316   0.654   2.563   4.390  0.5386 -0.4356  0.0594
  232ACTN    C1 2317   0.499   2.696   4.493 -0.2192 -0.0752  0.1922
  232ACTN    H1 2318   0.464   2.646   4.583 -1.5924  1.0822  0.3234
  232ACTN    H2 2319   0.430   2.674   4.411 -2.2153  0.3358  1.7253
  232ACTN    H3 2320   0.496   2.803   4.516 -1.3077 -0.1596  0.4638
  233ACTN    H6 2321   3.540   0.192   2.530  0.3856 -0.1586 -0.1113
  233ACTN    C3 2322   3.496   0.168   2.627 -0.5746 -0.4966 -0.6307
  233ACTN    H4 2323   3.561   0.187   2.712 -2.3788 -1.9532  1.1177
  233ACTN    H5 2324   3.407   0.229   2.646  1.9633  3.0799  0.4278
  233ACTN    C2 2325   3.452   0.026   2.637  1.2714  0.3169  0.3333
  233ACTN    O1 2326   3.336  -0.008   2.614 -0.6989 -0.2721  0.4147
  233ACTN    C1 2327   3.547  -0.087   2.671  0.7140 -0.5495  0.0282
  233ACTN    H1 2328   3.520  -0.129   2.768  3.8234  1.0912  1.6951
  233ACTN    H2 2329   3.648  -0.052   2.692  1.1474 -1.4371 -0.5167
  233ACTN    H3 2330   3.562  -0.164   2.596 -0.9029 -0.2023 -0.6678
  234ACTN    H6 2331   3.543   6.942   2.405  2.1205 -4.8644  1.3284
  234ACTN    C3 2332   3.638   6.981   2.368 -0.0683 -0.2146  0.1584
  234ACTN    H4 2333   3.623   7.077   2.320  0.2307 -0.5426 -0.6030
  234ACTN    H5 2334   3.706   6.982   2.453 -1.7418  0.6885  1.5142
  234ACTN    C2 2335   3.687   6.877   2.273 -0.4599  0.0042  0.3257
  234ACTN    O1 2336   3.721   6.898   2.154  0.2743 -0.2640 -0.4064
  234ACTN    C1 2337   3.691   6.737   2.325  0.3117 -0.6914  0.2476
  234ACTN    H1 2338   3.787   6.690   2.304  0.6900  0.0990  0.1934
  234ACTN    H2 2339   3.615   6.674   2.279  0.9982 -0.7880 -0.7618
  234ACTN    H3 2340   3.670   6.736   2.432  0.6603  2.1512  0.3721
  235ACTN    H6 2341   5.335   7.302   5.086 -1.8240 -1.8771  0.5341
  235ACTN    C3 2342   5.395   7.277   5.173 -0.2657  0.9051  0.3025
  235ACTN    H4 2343   5.497   7.250   5.146 -1.2455  0.7044 -3.4444
  235ACTN    H5 2344   5.401   7.359   5.244  2.7180 -0.1222  1.3304
  235ACTN    C2 2345   5.345   7.160   5.253 -0.3268 -0.3477 -0.6353
  235ACTN    O1 2346   5.270   7.176   5.350 -0.0609  0.0440 -0.8874
  235ACTN    C1 2347   5.388   7.027   5.207 -0.0998  0.7150 -0.1167
  235ACTN    H1 2348   5.496   7.028   5.216 -0.1780  0.8667  0.8145
  235ACTN    H2 2349   5.351   7.009   5.105  1.9784  1.6933 -1.0574
  235ACTN    H3 2350   5.354   6.948   5.274  2.0414  0.5488  0.8041
  236ACTN    H6 2351   2.715   1.615   4.588 -0.0407 -0.3923 -1.1847
  236ACTN    C3 2352   2.628   1.677   4.566  0.1134  0.1860 -0.2345
  236ACTN    H4 2353   2.622   1.751   4.646  0.0534 -0.7451  0.6363
  236ACTN    H5 2354   2.640   1.723   4.468 -1.6743  1.5982  0.1815
  236ACTN    C2 2355   2.505   1.587   4.582 -0.4416  0.6766 -0.2943
  236ACTN    O1 2356   2.415   1.596   4.501 -0.2601 -0.0974  0.1327
  236ACTN    C1 2357   2.478   1.511   4.702  0.1332  0.3208 -1.5180
  236ACTN    H1 2358   2.396   1.440   4.702  0.7948 -0.4797  0.7367
  236ACTN    H2 2359   2.461   1.587   4.779  1.9626 -0.5931 -0.1660
  236ACTN    H3 2360   2.570   1.458   4.727  0.0169 -0.1462 -2.0759
  237ACTN    H6 2361   5.603   3.564   4.213  1.4934 -1.2620  3.0059
  237ACTN    C3 2362   5.514   3.502   4.232 -0.0106 -0.0958  0.1155
  237ACTN    H4 2363   5.454   3.562   4.301 -0.8956  0.2322 -0.9326
  237ACTN    H5 2364   5.459   3.490   4.139 -2.7941  1.5368  1.4859
  237ACTN    C2 2365   5.568   3.375   4.298  0.3823  0.1719 -0.2679
  237ACTN    O1 2366   5.615   3.382   4.407  0.7090 -0.1972  0.1845
  237ACTN    C1 2367   5.600   3.265   4.206  0.6928  0.2468  0.4023
  237ACTN    H1 2368   5.564   3.282   4.104 -0.6360 -1.0513  0.6364
  237ACTN    H2 2369   5.564   3.168   4.238  0.0769 -0.2150 -1.6550
  237ACTN    H3 2370   5.709   3.262   4.197  0.7103  1.2237  0.2361
  238ACTN    H6 2371   1.385   1.168   0.205 -0.9702  0.5093 -1.1325
  238ACTN    C3 2372   1.284   1.125   0.209 -0.5693 -0.3338  0.0755
  238ACTN    H4 2373   1.259   1.080   0.113  0.9409  0.5547 -0.7714
  238ACTN    H5 2374   1.223   1.214   0.226  0.5791  1.3118 -3.9031
  238ACTN    C2 2375   1.275   1.021   0.313 -0.6932  0.4076 -0.4349
  238ACTN    O1 2376   1.377   0.971   0.359 -0.0163  0.2120 -0.2104
  238ACTN    C1 2377   1.139   0.989   0.358  0.2094  0.0834 -0.3424
  238ACTN    H1 2378   1.126   1.047   0.449 -1.0540  1.3155 -1.2834
  238ACTN    H2 2379   1.121   0.884   0.381 -0.6858 -0.1189 -1.8988
  238ACTN    H3 2380   1.062   1.021   0.287 -0.4493  0.2534  0.4423
  239ACTN    H6 2381   6.078   2.274   5.866 -1.4026 -0.4866  1.8787
  239ACTN    C3 2382   6.083   2.382   5.884 -1.0896 -0.0807 -0.4639
  239ACTN    H4 2383   6.004   2.411   5.954 -0.6479  1.5050 -0.6154
  239ACTN    H5 2384   6.178   2.403   5.932 -2.4936  2.3116  1.3708
  239ACTN    C2 2385   6.076   2.453   5.746  0.0723 -1.1774 -0.1835
  239ACTN    O1 2386   6.147   2.426   5.656  0.5010  0.1541  0.3834
  239ACTN    C1 2387   5.971   2.558   5.725 -0.7877  0.0041 -0.3957
  239ACTN    H1 2388   5.988   2.613   5.633  1.7959 -1.0847 -0.6144
  239ACTN    H2 2389   5.967   2.631   5.806  0.6170  0.6453 -0.8976
  239ACTN    H3 2390   5.874   2.508   5.733 -0.6914 -0.3648 -1.5050
  240ACTN    H6 2391   2.765   2.127   3.831 -0.4056 -0.5393 -0.8873
  240ACTN    C3 2392   2.729   2.229   3.824  0.3573 -0.2125 -0.2200
  240ACTN    H4 2393   2.673   2.243   3.917  0.8550  1.9940 -0.2178
  240ACTN    H5 2394   2.810   2.301   3.830 -0.0573  0.3586 -1.3400
  240ACTN    C2 2395   2.635   2.247   3.709 -0.4756  0.5203  0.4968
  240ACTN    O1 2396   2.518   2.276   3.729  0.1280 -0.4261  0.0787
  240ACTN    C1 2397   2.671   2.196   3.575 -0.1561 -0.2098 -0.7271
  240ACTN    H1 2398   2.700   2.091   3.584  0.6042  0.1550  1.4676
  240ACTN    H2 2399   2.759   2.252   3.545  1.0534 -1.5935  0.1496
  240ACTN    H3 2400   2.601   2.208   3.493  0.3742 -0.9023 -1.2983
  241ACTN    H6 2401   6.978   3.459   0.854  0.4475  0.8759  0.9018
  241ACTN    C3 2402   7.021   3.519   0.774 -0.3948 -0.1223 -0.3195
  241ACTN    H4 2403   7.046   3.448   0.694  0.1426 -0.2519 -0.0376
  241ACTN    H5 2404   6.939   3.580   0.736  0.5113 -0.3674 -2.7985
  241ACTN    C2 2405   7.128   3.607   0.819  0.7493  0.6724  0.1936
  241ACTN    O1 2406   7.196   3.564   0.915 -0.3899  0.3064  0.1002
  241ACTN    C1 2407   7.152   3.737   0.758  0.0666  0.0381 -0.1212
  241ACTN    H1 2408   7.186   3.814   0.827  1.0397 -0.0325 -0.5223
  241ACTN    H2 2409   7.061   3.783   0.719  0.5383  1.7580  0.7424
  241ACTN    H3 2410   7.226   3.732   0.679 -0.9365  0.7734 -1.1189
  242ACTN    H6 2411   6.232   2.645   5.443 -1.1586 -0.9198 -0.1233
  242ACTN    C3 2412   6.174   2.737   5.430 -0.1818 -0.2283  0.3291
  242ACTN    H4 2413   6.162   2.789   5.525 -0.2089 -1.7288  1.1703
  242ACTN    H5 2414   6.231   2.800   5.361  0.2120 -3.7329 -2.7655
  242ACTN    C2 2415   6.043   2.714   5.364 -1.3305 -0.2146  0.3889
  242ACTN    O1 2416   5.937   2.750   5.416 -0.1735 -0.6780  0.9558
  242ACTN    C1 2417   6.052   2.644   5.228 -0.4146 -0.2788 -0.1228
  242ACTN    H1 2418   5.955   2.637   5.179 -0.4852 -0.1304 -0.0056
  242ACTN    H2 2419   6.106   2.550   5.233  0.1008 -0.0061 -0.4356
  242ACTN    H3 2420   6.107   2.716   5.167 -0.6013 -1.2020 -1.4135
  243ACTN    H6 2421   5.014   3.876   0.134 -1.2552  0.2282 -0.5841
  243ACTN    C3 2422   5.003   3.768   0.121  0.3256 -0.1037  0.7205
  243ACTN    H4 2423   5.064   3.729   0.203  0.1721 -1.9653 -0.0267
  243ACTN    H5 2424   4.899   3.750   0.146  0.6480 -1.6248  1.0107
  243ACTN    C2 2425   5.031   3.722  -0.019 -0.1170 -0.8905  0.2539
  243ACTN    O1 2426   5.150   3.708  -0.052 -0.4023 -0.2794 -0.5647
  243ACTN    C1 2427   4.927   3.695  -0.119 -0.3637  0.6173 -0.0452
  243ACTN    H1 2428   4.904   3.591  -0.142 -0.0731  0.2525  1.2302
  243ACTN    H2 2429   4.956   3.748  -0.210 -0.5549  1.6819  0.4962
  243ACTN    H3 2430   4.835   3.743  -0.084 -0.4361  0.9155 -0.6325
  244ACTN    H6 2431   2.040   5.946   0.952  0.7666  0.6241 -3.5302
  244ACTN    C3 2432   1.931   5.951   0.944  0.3538 -0.5418  0.1714
  244ACTN    H4 2433   1.903   6.010   0.857 -1.8856 -1.4468  0.2616
  244ACTN    H5 2434   1.895   5.849   0.928  1.1610 -1.2458  2.6090
  244ACTN    C2 2435   1.883   6.012   1.069 -0.5800  0.0505 -0.4751
  244ACTN    O1 2436   1.823   6.119   1.060 -0.1099  0.5499 -0.5338
  244ACTN    C1 2437   1.904   5.945   1.196  0.6395  0.3141  0.6128
  244ACTN    H1 2438   1.974   5.861   1.184  0.0576 -0.2753  1.3080
  244ACTN    H2 2439   1.810   5.906   1.235  0.6317  1.7577  2.0490
  244ACTN    H3 2440   1.944   6.014   1.270  0.3293 -0.7549  1.7840
  245ACTN    H6 2441   6.393   1.356   3.869 -1.4856  0.2099  0.2605
  245ACTN    C3 2442   6.373   1.288   3.786 -0.1051  0.1670 -0.0433
  245ACTN    H4 2443   6.265   1.279   3.774 -0.0878  1.5121 -1.4223
  245ACTN    H5 2444   6.412   1.329   3.692 -1.4732 -0.6910 -1.0026
  245ACTN    C2 2445   6.430   1.155   3.828 -0.2982 -0.2724 -0.1889
  245ACTN    O1 2446   6.552   1.154   3.839 -0.0047 -0.2364  0.7056
  245ACTN    C1 2447   6.354   1.030   3.848 -0.0002  0.1623 -0.1569
  245ACTN    H1 2448   6.329   0.996   3.747  0.5864  3.2195 -1.3728
  245ACTN    H2 2449   6.269   1.042   3.915 -0.8023 -3.0614 -0.4891
  245ACTN    H3 2450   6.422   0.957   3.891 -0.1140  1.0125  1.5018
  246ACTN    H6 2451   2.524   1.603   3.906 -1.5232 -0.2407  1.0562
  246ACTN    C3 2452   2.588   1.548   3.975 -1.0964 -0.7817  0.2335
  246ACTN    H4 2453   2.517   1.496   4.039 -0.9519  0.7184  1.6259
  246ACTN    H5 2454   2.636   1.465   3.922  2.5892 -0.0100  2.2327
  246ACTN    C2 2455   2.678   1.627   4.055 -0.1767  0.2583  1.0450
  246ACTN    O1 2456   2.641   1.704   4.148  0.4520 -0.7317 -0.7478
  246ACTN    C1 2457   2.823   1.595   4.048  0.0479  0.0856  0.3986
  246ACTN    H1 2458   2.841   1.605   3.941 -2.0171 -1.6888 -0.1583
  246ACTN    H2 2459   2.837   1.490   4.073  0.2157  0.5980  2.5068
  246ACTN    H3 2460   2.887   1.662   4.104 -0.5721 -0.8511  2.2411
  247ACTN    H6 2461   4.707   5.831   1.331  1.6807 -0.3912  0.8858
  247ACTN    C3 2462   4.754   5.762   1.261  0.2808 -0.5512  0.0903
  247ACTN    H4 2463   4.820   5.692   1.313  1.4035  0.5081  0.1251
  247ACTN    H5 2464   4.679   5.704   1.207 -1.0835  1.3924 -0.1443
  247ACTN    C2 2465   4.843   5.838   1.162 -0.7041 -0.1430 -0.5308
  247ACTN    O1 2466   4.873   5.789   1.052  0.4450 -0.3546 -0.1592
  247ACTN    C1 2467   4.925   5.944   1.225  0.2762  0.1199 -0.6088
  247ACTN    H1 2468   4.969   6.006   1.147 -0.6533  1.2501 -0.2362
  247ACTN    H2 2469   5.011   5.902   1.277 -0.5271 -2.4584 -1.2888
  247ACTN    H3 2470   4.870   6.005   1.296  0.4643 -1.4039  0.8876
  248ACTN    H6 2471   0.993   5.705   5.707 -1.7801 -0.6984 -0.3084
  248ACTN    C3 2472   0.993   5.804   5.661  0.4125 -0.6076 -0.1325
  248ACTN    H4 2473   1.022   5.780   5.559  0.9397 -2.6953  0.4687
  248ACTN    H5 2474   0.891   5.839   5.650  0.5786 -1.0032 -3.4369
  248ACTN    C2 2475   1.076   5.901   5.731 -0.0848 -1.0855 -0.5536
  248ACTN    O1 2476   1.099   6.010   5.688 -0.2996  0.2399 -0.3689
  248ACTN    C1 2477   1.134   5.874   5.868 -0.0710  0.5746  0.6163
  248ACTN    H1 2478   1.237   5.912   5.874  0.0490  0.3220  0.1481
  248ACTN    H2 2479   1.136   5.766   5.874  0.2095  0.4485 -1.3931
  248ACTN    H3 2480   1.074   5.914   5.950 -2.0129 -2.4271  0.7177
  249ACTN    H6 2481   1.467   1.744   5.549  0.8974 -0.7040  3.0340
  249ACTN    C3 2482   1.437   1.837   5.598 -0.3386  0.4301  0.2202
  249ACTN    H4 2483   1.449   1.819   5.705 -0.9637 -0.8648  0.0755
  249ACTN    H5 2484   1.513   1.912   5.575  0.2125  0.3339  1.6654
  249ACTN    C2 2485   1.297   1.866   5.569  0.1392  0.0218 -0.2862
  249ACTN    O1 2486   1.212   1.845   5.652  0.1948  0.3650 -0.3693
  249ACTN    C1 2487   1.261   1.911   5.434  0.1068  0.2741 -0.5694
  249ACTN    H1 2488   1.191   1.839   5.392 -2.2239 -0.2071  3.7343
  249ACTN    H2 2489   1.346   1.914   5.366  1.4887  0.6102  1.1363
  249ACTN    H3 2490   1.200   2.002   5.426 -2.9441 -1.4887  1.4264
  250ACTN    H6 2491   6.850   6.326   3.716  0.8626 -1.5258  1.1414
  250ACTN    C3 2492   6.745   6.305   3.733  0.4568 -0.5105 -0.0303
  250ACTN    H4 2493   6.706   6.377   3.806 -2.1639 -3.7024  1.8783
  250ACTN    H5 2494   6.732   6.207   3.779 -0.5791 -1.2257 -1.7948
  250ACTN    C2 2495   6.683   6.305   3.594 -0.5676 -0.1875 -0.1896
  250ACTN    O1 2496   6.748   6.332   3.495  0.0440 -0.1066  0.0339
  250ACTN    C1 2497   6.540   6.274   3.585 -0.6229  0.3315 -0.0798
  250ACTN    H1 2498   6.512   6.182   3.637 -1.0713  0.3721 -0.2436
  250ACTN    H2 2499   6.510   6.265   3.481 -1.7394 -0.9065  0.3347
  250ACTN    H3 2500   6.473   6.351   3.624 -2.2547  0.9385 -3.8508
  251ACTN    H6 2501   5.940   6.923   0.804  0.6730 -2.6448  0.9729
  251ACTN    C3 2502   5.836   6.935   0.835  0.8353  0.5315  0.4266
  251ACTN    H4 2503   5.787   6.982   0.749  0.5285 -1.7434 -0.6754
  251ACTN    H5 2504   5.800   6.832   0.839  1.5928  0.2117 -0.7061
  251ACTN    C2 2505   5.824   7.005   0.966  0.5903 -0.4456  0.0421
  251ACTN    O1 2506   5.884   7.104   0.992 -0.2102 -0.0942 -0.0055
  251ACTN    C1 2507   5.721   6.963   1.059  0.6519  0.4528 -0.2459
  251ACTN    H1 2508   5.727   7.012   1.156 -0.5702 -0.9944  0.5737
  251ACTN    H2 2509   5.719   6.855   1.076 -0.8479  0.7387  1.5982
  251ACTN    H3 2510   5.623   6.985   1.019 -0.2783  1.4467  2.4380
  252ACTN    H6 2511   4.313   6.898   3.324 -0.1674  0.9521 -1.0122
  252ACTN    C3 2512   4.359   6.993   3.351  0.3523  0.5926 -0.6123
  252ACTN    H4 2513   4.444   6.983   3.419 -0.7185 -0.0534  0.6626
  252ACTN    H5 2514   4.403   7.028   3.258  0.5384 -1.3418 -1.2728
  252ACTN    C2 2515   4.271   7.108   3.401  0.4666  0.3123  0.4538
  252ACTN    O1 2516   4.323   7.219   3.425  0.2927 -0.5269  0.0748
  252ACTN    C1 2517   4.127   7.072   3.443  0.7157  0.5945 -0.0304
  252ACTN    H1 2518   4.142   7.006   3.529  0.7935 -0.0221 -0.5100
  252ACTN    H2 2519   4.088   7.014   3.359 -0.3703  2.5221 -0.8632
  252ACTN    H3 2520   4.064   7.152   3.481 -1.7803 -1.1360 -0.4580
  253ACTN    H6 2521   5.536   5.156   3.517  0.7714 -1.5516  1.0951
  253ACTN    C3 2522   5.625   5.203   3.560  0.4351  0.0146  0.1121
  253ACTN    H4 2523   5.710   5.165   3.504  0.3086  0.4745 -0.4074
  253ACTN    H5 2524   5.635   5.170   3.663  1.5616  2.6321  0.8958
  253ACTN    C2 2525   5.636   5.352   3.561  0.4100 -0.2180 -0.5082
  253ACTN    O1 2526   5.651   5.413   3.457  0.9186  0.0190  0.0826
  253ACTN    C1 2527   5.647   5.424   3.693  0.4971  0.0515  0.6793
  253ACTN    H1 2528   5.638   5.350   3.772 -1.5032  0.2763  0.6774
  253ACTN    H2 2529   5.561   5.488   3.710 -2.0489 -2.9732 -0.3713
  253ACTN    H3 2530   5.740   5.477   3.672  0.4573 -0.2656 -0.3083
  254ACTN    H6 2531   4.785   5.969   1.772 -0.7874 -0.1421 -0.3603
  254ACTN    C3 2532   4.771   6.064   1.721 -0.7038 -0.1178 -0.3384
  254ACTN    H4 2533   4.805   6.141   1.790  1.9393 -1.1868 -0.4121
  254ACTN    H5 2534   4.839   6.062   1.636 -2.5624  0.8068 -1.8937
  254ACTN    C2 2535   4.622   6.064   1.678 -1.2050 -0.3472  0.1936
  254ACTN    O1 2536   4.553   6.157   1.699  0.7917  0.3883 -0.6782
  254ACTN    C1 2537   4.557   5.943   1.627  0.3521 -0.5776 -0.3798
  254ACTN    H1 2538   4.461   5.961   1.579 -0.8300  0.6443  2.3063
  254ACTN    H2 2539   4.546   5.878   1.714 -0.1280 -0.8662 -0.6495
  254ACTN    H3 2540   4.627   5.900   1.556  0.6239  1.2971 -1.2710
  255ACTN    H6 2541   2.277   3.217   2.853 -0.3678 -0.8423  0.6946
  255ACTN    C3 2542   2.385   3.207   2.852 -0.3103 -0.1999  0.0088
  255ACTN    H4 2543   2.409   3.177   2.954 -2.4841  1.1997  0.9576
  255ACTN    H5 2544   2.422   3.138   2.776 -0.8389  0.2783 -0.6953
  255ACTN    C2 2545   2.462   3.335   2.828  0.1704  0.7423 -0.4888
  255ACTN    O1 2546   2.413   3.443   2.788 -0.5335 -0.0923 -0.5971
  255ACTN    C1 2547   2.605   3.320   2.840 -0.3319  0.1035 -0.1141
  255ACTN    H1 2548   2.649   3.420   2.849  2.3380 -1.2356  2.9605
  255ACTN    H2 2549   2.655   3.271   2.756 -1.3784  1.1760 -1.3790
  255ACTN    H3 2550   2.621   3.271   2.936  1.1964  0.5942 -0.0974
  256ACTN    H6 2551   7.155   7.357   4.424 -1.3445  0.2781 -0.5467
  256ACTN    C3 2552   7.190   7.319   4.328  0.4126 -0.2514  0.2958
  256ACTN    H4 2553   7.145   7.223   4.302  2.3180 -0.7040 -1.5337
  256ACTN    H5 2554   7.169   7.392   4.251  1.2032  1.0650  1.3115
  256ACTN    C2 2555   7.341   7.296   4.333 -0.9272 -0.5424  0.4416
  256ACTN    O1 2556   7.404   7.271   4.234 -0.5416  0.3333  0.2424
  256ACTN    C1 2557   7.394   7.298   4.469 -0.5555 -0.4578  0.1961
  256ACTN    H1 2558   7.503   7.295   4.458 -0.4415  1.1463  0.7697
  256ACTN    H2 2559   7.358   7.214   4.529  0.4399 -1.0890 -0.0625
  256ACTN    H3 2560   7.365   7.396   4.504  1.4232  0.1066  0.3454
  257ACTN    H6 2561   4.839   4.337   1.474 -0.7383  0.4294 -0.8709
  257ACTN    C3 2562   4.808   4.296   1.378 -0.8673  0.0626 -0.6733
  257ACTN    H4 2563   4.708   4.330   1.351 -1.3806 -2.1254 -1.6251
  257ACTN    H5 2564   4.878   4.344   1.309  0.1502  3.7775  2.7482
  257ACTN    C2 2565   4.818   4.149   1.394 -0.5360  1.0379  0.2612
  257ACTN    O1 2566   4.855   4.079   1.297  0.6457  0.1429 -0.4439
  257ACTN    C1 2567   4.737   4.087   1.508 -0.1838  0.5863 -0.0855
  257ACTN    H1 2568   4.662   4.163   1.532  0.7313  0.8864  1.8842
  257ACTN    H2 2569   4.798   4.063   1.594  0.5470  0.1673 -0.7166
  257ACTN    H3 2570   4.697   3.992   1.473 -1.7614  0.7533  1.2012
  258ACTN    H6 2571   6.705   7.355   5.473  0.0330 -0.9266 -0.1261
  258ACTN    C3 2572   6.630   7.401   5.409  0.3951  0.2051  0.2499
  258ACTN    H4 2573   6.560   7.326   5.372 -1.0814  2.5300 -1.7769
  258ACTN    H5 2574   6.583   7.476   5.472 -1.2735  0.0308 -0.7422
  258ACTN    C2 2575   6.682   7.473   5.293  0.6885 -1.0662  0.1973
  258ACTN    O1 2576   6.801   7.506   5.290  0.1481 -0.1597  0.4981
  258ACTN    C1 2577   6.594   7.489   5.164 -0.6272  0.1860 -0.2467
  258ACTN    H1 2578   6.556   7.591   5.162  1.5340  1.0385 -0.0049
  258ACTN    H2 2579   6.519   7.411   5.149 -1.0986  0.8493 -1.3691
  258ACTN    H3 2580   6.665   7.475   5.082 -0.1281 -3.0126  0.6293
  259ACTN    H6 2581   3.932   5.115   4.388 -0.3365  0.3133  1.2340
  259ACTN    C3 2582   3.908   5.183   4.306  0.3106 -0.0272  0.7633
  259ACTN    H4 2583   3.804   5.216   4.313  0.1172 -0.3544 -0.4191
  259ACTN    H5 2584   3.970   5.272   4.306  1.1931 -0.6382  0.3811
  259ACTN    C2 2585   3.931   5.110   4.186  0.3658  0.0774 -0.2823
  259ACTN    O1 2586   4.006   5.148   4.100 -0.1989 -0.5979  0.6302
  259ACTN    C1 2587   3.859   4.982   4.152 -0.0848  0.0586 -0.1206
  259ACTN    H1 2588   3.926   4.898   4.135 -2.6524 -1.7902 -1.5218
  259ACTN    H2 2589   3.798   4.989   4.062  0.4775 -1.0843 -0.5959
  259ACTN    H3 2590   3.782   4.960   4.226 -1.1162 -0.5711 -1.3723
  260ACTN    H6 2591   3.190   2.421   5.232  1.4606  1.6210 -0.9747
  260ACTN    C3 2592   3.136   2.375   5.149  0.9283  0.0788  0.1872
  260ACTN    H4 2593   3.029   2.397   5.150  1.0020  0.4115  1.9779
  260ACTN    H5 2594   3.165   2.431   5.060  1.8326 -1.4974 -0.5124
  260ACTN    C2 2595   3.161   2.233   5.144  0.2963 -1.1437 -0.0383
  260ACTN    O1 2596   3.196   2.174   5.247 -0.0724 -0.0067 -0.1335
  260ACTN    C1 2597   3.133   2.143   5.027 -0.1438 -0.5438  0.2002
  260ACTN    H1 2598   3.100   2.205   4.944  1.0487  1.6007  1.2799
  260ACTN    H2 2599   3.049   2.079   5.054 -0.7675 -0.2979 -1.1128
  260ACTN    H3 2600   3.220   2.082   5.006 -1.6923 -1.9288 -2.4939
  261ACTN    H6 2601   1.636   0.889   4.031  0.8189  1.8922  0.2982
  261ACTN    C3 2602   1.722   0.833   3.992 -0.4494 -0.1816  0.3758
  261ACTN    H4 2603   1.796   0.912   3.977  0.1468 -0.5448  1.4071
  261ACTN    H5 2604   1.686   0.789   3.899  2.1601 -2.2095  0.2791
  261ACTN    C2 2605   1.769   0.748   4.091 -0.1930 -0.2112 -0.9416
  261ACTN    O1 2606   1.698   0.748   4.194 -0.1452  0.1345  0.3625
  261ACTN    C1 2607   1.894   0.676   4.074 -0.2398  1.0655  0.1860
  261ACTN    H1 2608   1.873   0.569   4.077  4.1466  0.0770 -0.8120
  261ACTN    H2 2609   1.968   0.700   4.151 -1.2935 -0.0088  1.5526
  261ACTN    H3 2610   1.934   0.693   3.974 -0.6908 -0.2489 -0.2222
  262ACTN    H6 2611   1.859   1.577   2.444 -0.4364  0.2135 -0.0583
  262ACTN    C3 2612   1.950   1.533   2.486 -0.3367  0.5094  0.0384
  262ACTN    H4 2613   1.987   1.461   2.413 -0.6198  2.8939 -2.5266
  262ACTN    H5 2614   2.022   1.613   2.500 -0.6290  1.0247 -1.3242
  262ACTN    C2 2615   1.901   1.452   2.603 -0.8102 -0.5427 -0.3214
  262ACTN    O1 2616   1.978   1.439   2.698  0.0051  0.0580  0.5520
  262ACTN    C1 2617   1.787   1.349   2.587  0.5420  0.2118 -0.0313
  262ACTN    H1 2618   1.694   1.405   2.591 -0.2715 -1.0943 -0.3362
  262ACTN    H2 2619   1.802   1.263   2.653  1.6717  0.5987  0.2405
  262ACTN    H3 2620   1.793   1.312   2.485  1.6164 -0.8385  0.3901
  263ACTN    H6 2621   1.543   7.165   1.576  1.9115 -1.5766  0.1722
  263ACTN    C3 2622   1.512   7.098   1.496  0.6412  0.0254 -0.6959
  263ACTN    H4 2623   1.608   7.056   1.465  1.4180  0.1905  1.4462
  263ACTN    H5 2624   1.451   7.017   1.535 -2.0446  2.5903  0.5306
  263ACTN    C2 2625   1.452   7.166   1.378  0.2176  0.7357  0.3292
  263ACTN    O1 2626   1.499   7.264   1.337 -0.4494  0.4695 -0.3386
  263ACTN    C1 2627   1.313   7.125   1.336  1.1592  0.2910  0.4013
  263ACTN    H1 2628   1.323   7.075   1.240  0.9615  1.4243 -0.2027
  263ACTN    H2 2629   1.250   7.213   1.325 -0.7592 -1.0124  0.7749
  263ACTN    H3 2630   1.263   7.052   1.399  0.8442  1.3422  1.3820
  264ACTN    H6 2631   1.433   6.144   3.897 -0.7302  0.1508  1.6962
  264ACTN    C3 2632   1.538   6.150   3.924 -0.2910 -0.1208  0.0457
  264ACTN    H4 2633   1.546   6.173   4.030  1.4913 -0.3399 -0.0243
  264ACTN    H5 2634   1.585   6.055   3.900  2.6475  1.1774  0.3604
  264ACTN    C2 2635   1.622   6.255   3.851 -0.4192 -0.7388 -0.7048
  264ACTN    O1 2636   1.606   6.376   3.869  0.2792  0.5395 -0.2784
  264ACTN    C1 2637   1.719   6.202   3.755  0.0412  0.0967  0.3302
  264ACTN    H1 2638   1.675   6.141   3.676  0.9415  1.1529 -1.0248
  264ACTN    H2 2639   1.782   6.132   3.810 -3.5246 -2.1698  1.6871
  264ACTN    H3 2640   1.774   6.284   3.707  0.3217  0.9294  2.0498
  265ACTN    H6 2641   2.924   0.608   5.582  0.3084  1.3712 -0.3352
  265ACTN    C3 2642   2.823   0.626   5.618  0.0735  0.3004 -0.4739
  265ACTN    H4 2643   2.769   0.690   5.548 -0.2357  0.6236  0.0605
  265ACTN    H5 2644   2.763   0.534   5.616 -0.0780  0.4129 -1.7555
  265ACTN    C2 2645   2.807   0.696   5.754 -0.3892 -0.0707  0.3591
  265ACTN    O1 2646   2.879   0.797   5.778 -0.2212 -0.2478  0.5156
  265ACTN    C1 2647   2.733   0.629   5.868 -0.2876  0.6994  0.1998
  265ACTN    H1 2648   2.719   0.697   5.952 -1.0082  3.1426 -1.8501
  265ACTN    H2 2649   2.769   0.529   5.891 -1.5566 -0.4927 -2.7208
  265ACTN    H3 2650   2.630   0.618   5.835 -0.7362  2.5026  0.9474
  266ACTN    H6 2651   5.213   3.150   4.480  2.0376 -0.7942  0.1687
  266ACTN    C3 2652   5.200   3.112   4.581  0.3115  0.7190  0.5351
  266ACTN    H4 2653   5.132   3.028   4.586  2.4539 -1.1484 -0.7363
  266ACTN    H5 2654   5.296   3.093   4.630 -0.6361 -1.0101  1.7431
  266ACTN    C2 2655   5.142   3.230   4.649  0.8931  0.1157  0.3482
  266ACTN    O1 2656   5.039   3.213   4.717 -0.5422 -0.1395 -0.2868
  266ACTN    C1 2657   5.222   3.353   4.641  0.2208 -0.5741 -0.1018
  266ACTN    H1 2658   5.316   3.337   4.588  0.3773  1.3541 -0.4590
  266ACTN    H2 2659   5.242   3.381   4.744  0.5112 -1.1258 -0.0060
  266ACTN    H3 2660   5.172   3.434   4.588 -0.5758  0.1312  1.6881
  267ACTN    H6 2661   5.837   6.428   1.726 -2.6607 -1.8140  0.0328
  267ACTN    C3 2662   5.788   6.518   1.764 -0.1592 -0.7118  0.7364
  267ACTN    H4 2663   5.831   6.551   1.859  0.9772  1.5213 -0.5094
  267ACTN    H5 2664   5.786   6.596   1.688  0.3193  0.0062  1.4608
  267ACTN    C2 2665   5.648   6.467   1.790 -0.0807 -0.1562  0.3321
  267ACTN    O1 2666   5.568   6.550   1.841 -0.1582  0.0188  0.5362
  267ACTN    C1 2667   5.613   6.323   1.784  0.3347  0.0138  0.6510
  267ACTN    H1 2668   5.546   6.304   1.700 -0.9657  1.0198  1.4383
  267ACTN    H2 2669   5.565   6.287   1.875 -1.0933  3.0106  1.1327
  267ACTN    H3 2670   5.704   6.265   1.770  0.7765  1.0845 -0.9517
  268ACTN    H6 2671   0.051   6.291   3.949 -0.1895 -0.8639 -1.0465
  268ACTN    C3 2672   0.153   6.266   3.917  0.5385 -0.5703  0.9462
  268ACTN    H4 2673   0.160   6.312   3.818  0.3472  0.3862  1.3755
  268ACTN    H5 2674   0.163   6.158   3.912 -2.7212 -0.8737 -0.4531
  268ACTN    C2 2675   0.239   6.327   4.017  0.7047  0.2021 -0.4874
  268ACTN    O1 2676   0.241   6.449   4.024  0.5403  0.3394  0.1638
  268ACTN    C1 2677   0.294   6.245   4.127  0.7154  0.1342  0.6389
  268ACTN    H1 2678   0.271   6.290   4.224  0.5931 -0.3254  0.8218
  268ACTN    H2 2679   0.400   6.229   4.106  0.0596 -1.0981 -1.9321
  268ACTN    H3 2680   0.254   6.145   4.118 -0.7367  0.7385  0.3297
  269ACTN    H6 2681   3.187   4.670   1.593 -2.7145 -0.9133 -0.1418
  269ACTN    C3 2682   3.159   4.738   1.673 -0.3587  0.2069 -0.2024
  269ACTN    H4 2683   3.051   4.749   1.662 -0.6359  0.0508  2.1013
  269ACTN    H5 2684   3.185   4.685   1.765 -1.0798  0.1272 -0.0368
  269ACTN    C2 2685   3.215   4.872   1.661  0.2050  0.4439  0.3313
  269ACTN    O1 2686   3.288   4.912   1.746  0.3232  0.6274  0.2247
  269ACTN    C1 2687   3.181   4.958   1.537 -0.2078 -0.1389 -0.3671
  269ACTN    H1 2688   3.165   5.061   1.568  0.3291  0.0822 -0.8157
  269ACTN    H2 2689   3.095   4.923   1.480 -1.8314 -0.8267  2.3993
  269ACTN    H3 2690   3.263   4.977   1.468 -1.0751 -0.4212 -1.4698
  270ACTN    H6 2691   0.240   2.011   6.474 -0.3404  0.9006  3.3129
  270ACTN    C3 2692   0.248   1.913   6.521 -0.2386 -0.6982  0.0664
  270ACTN    H4 2693   0.218   1.838   6.447  1.0765  0.4651 -1.6885
  270ACTN    H5 2694   0.353   1.901   6.548 -0.3224  0.6437  1.0237
  270ACTN    C2 2695   0.157   1.905   6.634 -0.6065 -0.4361 -0.3635
  270ACTN    O1 2696   0.112   1.795   6.664  0.2332  0.3255  0.2009
  270ACTN    C1 2697   0.155   2.019   6.731 -0.3013 -0.4797  0.0861
  270ACTN    H1 2698   0.119   2.114   6.691  0.4640 -0.1895  0.0659
  270ACTN    H2 2699   0.257   2.042   6.763 -1.1069  1.3604  1.4457
  270ACTN    H3 2700   0.099   1.994   6.821  0.5331  0.2807  0.8359
  271ACTN    H6 2701   7.106   4.851   0.155  0.4934  0.1661 -0.4483
  271ACTN    C3 2702   6.997   4.853   0.148  0.4816  0.3326 -0.2260
  271ACTN    H4 2703   6.973   4.781   0.070 -0.6882  1.2199 -0.7038
  271ACTN    H5 2704   6.962   4.814   0.244  0.9138 -0.7206 -0.4910
  271ACTN    C2 2705   6.930   4.978   0.114  0.2627 -0.4331 -0.1949
  271ACTN    O1 2706   6.810   4.990   0.126 -0.1995 -0.2197  0.2377
  271ACTN    C1 2707   7.018   5.097   0.072 -0.2889 -0.3646  0.4454
  271ACTN    H1 2708   7.007   5.105  -0.036  1.2592 -2.0584  0.1457
  271ACTN    H2 2709   7.120   5.078   0.104 -1.1083 -0.9771  2.8239
  271ACTN    H3 2710   6.988   5.187   0.126  0.3604  1.2357 -1.7815
  272ACTN    H6 2711   3.555   2.346   0.003 -0.7631  2.0750  2.3813
  272ACTN    C3 2712   3.527   2.426  -0.066  0.2041  0.1195 -0.4036
  272ACTN    H4 2713   3.544   2.519  -0.012  1.6429  0.4890 -1.4738
  272ACTN    H5 2714   3.597   2.431  -0.149 -0.3899  0.8657 -0.8668
  272ACTN    C2 2715   3.386   2.424  -0.126  0.1051  0.0305 -0.1193
  272ACTN    O1 2716   3.356   2.373  -0.231  0.3000  0.1261 -0.2736
  272ACTN    C1 2717   3.285   2.506  -0.053 -0.0651 -0.4045 -0.4464
  272ACTN    H1 2718   3.317   2.532   0.048 -0.6898  1.0312 -0.6102
  272ACTN    H2 2719   3.188   2.461  -0.033 -0.3647  0.9785  1.4013
  272ACTN    H3 2720   3.277   2.605  -0.098  3.1459 -1.0136 -2.5253
  273ACTN    H6 2721   6.290   4.428   6.875 -0.6632 -0.2625  0.5772
  273ACTN    C3 2722   6.335   4.367   6.796 -0.1970  0.3847  0.3417
  273ACTN    H4 2723   6.249   4.313   6.757  1.4586 -0.0663 -2.7374
  273ACTN    H5 2724   6.366   4.437   6.719 -1.0657 -1.1694 -1.4476
  273ACTN    C2 2725   6.447   4.265   6.816 -0.6549 -0.3136 -0.6536
  273ACTN    O1 2726   6.563   4.317   6.829 -0.3824  0.6499  0.3672
  273ACTN    C1 2727   6.424   4.123   6.842 -0.2274  1.0424 -0.0434
  273ACTN    H1 2728   6.353   4.079   6.772 -0.8609 -0.9137  1.7981
  273ACTN    H2 2729   6.393   4.105   6.945  1.7925  0.0186  0.4025
  273ACTN    H3 2730   6.516   4.069   6.820 -1.7864 -1.9694  0.6787
  274ACTN    H6 2731   7.168   2.040   5.281 -0.1392 -0.4764 -2.1611
  274ACTN    C3 2732   7.060   2.043   5.298  0.1832 -0.1321 -0.0763
  274ACTN    H4 2733   7.029   2.085   5.203  1.1065  3.9018  1.2948
  274ACTN    H5 2734   7.033   1.938   5.310  2.1606 -0.6145  0.3067
  274ACTN    C2 2735   7.018   2.118   5.420 -0.0381 -0.5289  0.2592
  274ACTN    O1 2736   7.099   2.162   5.499 -0.3136  0.5958  0.4102
  274ACTN    C1 2737   6.874   2.150   5.425 -0.0652  0.3661 -0.0620
  274ACTN    H1 2738   6.816   2.100   5.347  0.4598 -1.5953  0.7842
  274ACTN    H2 2739   6.863   2.257   5.412 -0.4136  0.0800 -2.3371
  274ACTN    H3 2740   6.833   2.128   5.524 -0.1582  0.3424 -0.1052
  275ACTN    H6 2741   4.553   5.729   0.068  2.9065  0.4441  1.2886
  275ACTN    C3 2742   4.506   5.801   0.134  0.4307  0.2902 -0.2688
  275ACTN    H4 2743   4.491   5.761   0.234  1.2385 -0.0441 -0.2841
  275ACTN    H5 2744   4.579   5.881   0.138  0.4258  0.2883 -0.1416
  275ACTN    C2 2745   4.372   5.837   0.077  0.1449 -0.0763  0.3443
  275ACTN    O1 2746   4.358   5.858  -0.045 -0.1760  0.1703 -0.3854
  275ACTN    C1 2747   4.255   5.831   0.174 -0.6488 -0.4704 -0.2495
  275ACTN    H1 2748   4.184   5.755   0.142 -1.2553 -0.3709  0.8770
  275ACTN    H2 2749   4.216   5.932   0.179  1.1740  0.2243  0.3247
  275ACTN    H3 2750   4.293   5.819   0.275 -3.4561 -1.7464  0.6744
  276ACTN    H6 2751   5.782   5.288   5.462  3.6298 -1.6100  1.8574
  276ACTN    C3 2752   5.797   5.383   5.513  0.4070  0.0397 -0.0854
  276ACTN    H4 2753   5.753   5.378   5.613 -3.7337 -0.0109 -1.8003
  276ACTN    H5 2754   5.904   5.401   5.527  0.4120  0.7075 -0.9271
  276ACTN    C2 2755   5.730   5.506   5.449  0.3177 -0.6286  0.4202
  276ACTN    O1 2756   5.618   5.558   5.484  0.0539  0.2917 -0.0570
  276ACTN    C1 2757   5.783   5.566   5.329  0.2472 -0.1082 -0.5134
  276ACTN    H1 2758   5.855   5.497   5.283  1.9007  1.5142 -0.4145
  276ACTN    H2 2759   5.825   5.664   5.349  1.2521 -0.2537 -1.8225
  276ACTN    H3 2760   5.708   5.586   5.252  0.3943 -1.8746 -1.1423
  277ACTN    H6 2761   6.364   3.375   0.697 -0.6630  0.1978 -0.4037
  277ACTN    C3 2762   6.388   3.437   0.783 -0.0685 -0.1823 -0.2922
  277ACTN    H4 2763   6.427   3.364   0.854  1.7899  0.2150 -0.8935
  277ACTN    H5 2764   6.294   3.474   0.824  0.3522  0.5827 -0.0080
  277ACTN    C2 2765   6.480   3.545   0.754 -0.4951 -0.1156 -0.2156
  277ACTN    O1 2766   6.453   3.647   0.696  0.1912 -0.7606  0.4325
  277ACTN    C1 2767   6.619   3.539   0.800 -0.6170 -0.1205 -0.4612
  277ACTN    H1 2768   6.650   3.608   0.878  0.2711  1.5008 -2.2100
  277ACTN    H2 2769   6.686   3.559   0.716 -0.3087  2.4831  0.3731
  277ACTN    H3 2770   6.639   3.436   0.833 -2.6207 -0.7059 -1.0425
  278ACTN    H6 2771   2.370   0.182   4.014  0.9620  1.5192 -0.8536
  278ACTN    C3 2772   2.344   0.137   3.918  0.0730  0.0323  0.0604
  278ACTN    H4 2773   2.425   0.161   3.848  0.4947 -0.5812  0.3315
  278ACTN    H5 2774   2.339   0.030   3.938  0.5678  0.0121  0.0897
  278ACTN    C2 2775   2.209   0.179   3.857  0.0707  0.3836  0.3702
  278ACTN    O1 2776   2.107   0.147   3.909 -0.2196  0.1957 -0.0454
  278ACTN    C1 2777   2.208   0.237   3.718  0.3902  0.5907 -0.4410
  278ACTN    H1 2778   2.111   0.272   3.681  0.8403  0.9925 -1.2477
  278ACTN    H2 2779   2.250   0.168   3.644  1.1059 -0.5802  1.0287
  278ACTN    H3 2780   2.270   0.326   3.723 -1.0893  1.5767  0.9147
  279ACTN    H6 2781   3.621   2.093   0.236  0.7368  3.0864  2.3207
  279ACTN    C3 2782   3.676   2.017   0.291  0.2717  0.4916 -0.6736
  279ACTN    H4 2783   3.777   2.052   0.312  0.0222  1.4062 -0.9864
  279ACTN    H5 2784   3.619   2.001   0.383  0.3424 -1.8945 -1.0194
  279ACTN    C2 2785   3.684   1.888   0.214  0.3996  0.6927  0.8818
  279ACTN    O1 2786   3.733   1.794   0.268  0.3226  0.4168 -0.2463
  279ACTN    C1 2787   3.630   1.884   0.074 -0.0205 -0.4500  0.1708
  279ACTN    H1 2788   3.626   1.782   0.036  3.3121 -0.5451 -0.0441
  279ACTN    H2 2789   3.699   1.933   0.006 -1.4794 -0.5334 -1.4099
  279ACTN    H3 2790   3.536   1.939   0.079  1.9257  2.8561  1.4243
  280ACTN    H6 2791   1.585   7.336   5.270 -0.2343 -0.1374 -0.7675
  280ACTN    C3 2792   1.622   7.379   5.363  0.1692 -0.0836 -0.9523
  280ACTN    H4 2793   1.639   7.484   5.344 -0.6317  0.5394  1.5609
  280ACTN    H5 2794   1.550   7.369   5.445 -2.1310  0.3418 -2.8643
  280ACTN    C2 2795   1.756   7.319   5.397 -0.3088  0.1884  0.1262
  280ACTN    O1 2796   1.770   7.282   5.515 -0.0053 -0.5342 -0.0159
  280ACTN    C1 2797   1.848   7.284   5.283 -0.3593  0.1643  0.2023
  280ACTN    H1 2798   1.790   7.264   5.192  0.0417  1.9509 -0.4623
  280ACTN    H2 2799   1.922   7.207   5.306  0.0315 -0.5305 -3.0724
  280ACTN    H3 2800   1.907   7.371   5.255  0.9985 -0.7186  0.2657
  281ACTN    H6 2801   0.842   2.852   3.555  0.0534  0.1355  0.1253
  281ACTN    C3 2802   0.759   2.920   3.577 -0.1925 -0.1733  0.1654
  281ACTN    H4 2803   0.786   3.019   3.538  1.3435 -0.7008 -0.1646
  281ACTN    H5 2804   0.678   2.888   3.512  0.3987 -1.5937  0.1163
  281ACTN    C2 2805   0.699   2.916   3.718 -0.1631 -0.0335  0.6205
  281ACTN    O1 2806   0.658   3.024   3.756 -0.0035  0.6171  0.5828
  281ACTN    C1 2807   0.629   2.797   3.765 -0.8315  0.3611 -0.6988
  281ACTN    H1 2808   0.697   2.720   3.799  0.1906  1.1009 -1.0351
  281ACTN    H2 2809   0.566   2.750   3.689  1.0199  2.3579 -3.5708
  281ACTN    H3 2810   0.566   2.816   3.852 -0.1297 -1.7591  0.3007
  282ACTN    H6 2811   3.474   1.260   1.690 -1.1967  2.3839 -0.6745
  282ACTN    C3 2812   3.416   1.202   1.618 -0.0628  0.0085  0.2818
  282ACTN    H4 2813   3.423   1.099   1.652 -2.1142  0.0347  0.8656
  282ACTN    H5 2814   3.315   1.242   1.628  0.0048  0.3280 -0.2974
  282ACTN    C2 2815   3.461   1.220   1.477 -0.4794 -0.4665  0.7024
  282ACTN    O1 2816   3.383   1.252   1.388 -0.7559  0.8031  0.3302
  282ACTN    C1 2817   3.594   1.167   1.441  0.5366  0.0120  0.0454
  282ACTN    H1 2818   3.627   1.224   1.354 -0.5402  0.0522 -0.3518
  282ACTN    H2 2819   3.596   1.058   1.431  0.4834 -0.0070  0.2386
  282ACTN    H3 2820   3.660   1.187   1.525 -1.5666  0.2621  1.6769
  283ACTN    H6 2821   1.163   2.398   3.908 -0.2886 -0.5413  0.0666
  283ACTN    C3 2822   1.098   2.472   3.956  0.0255 -0.4446  0.3460
  283ACTN    H4 2823   1.124   2.569   3.915  0.4540  0.0630  1.8228
  283ACTN    H5 2824   0.995   2.443   3.934  0.3059 -1.9134  0.8730
  283ACTN    C2 2825   1.113   2.475   4.105  0.4163  0.0032 -0.4462
  283ACTN    O1 2826   1.054   2.565   4.163  0.1514  0.1952  0.2877
  283ACTN    C1 2827   1.199   2.381   4.177  1.1831 -0.2035  0.8912
  283ACTN    H1 2828   1.149   2.285   4.167  2.2021 -0.3641 -3.7171
  283ACTN    H2 2829   1.215   2.404   4.283 -1.7844 -0.3298  1.4241
  283ACTN    H3 2830   1.301   2.377   4.139  0.6934 -0.5203 -0.4044
  284ACTN    H6 2831   4.468   2.122   0.446  0.0896 -0.7281  0.4865
  284ACTN    C3 2832   4.543   2.151   0.373 -0.2708 -0.0961  0.3661
  284ACTN    H4 2833   4.486   2.134   0.281  0.2131  0.7908 -0.1083
  284ACTN    H5 2834   4.569   2.257   0.379 -3.9784  0.8132  2.1085
  284ACTN    C2 2835   4.666   2.060   0.393 -0.3271 -0.6705 -1.0820
  284ACTN    O1 2836   4.664   1.939   0.377 -0.3038  0.5585 -0.3195
  284ACTN    C1 2837   4.798   2.122   0.416  0.6009 -0.4997  0.9304
  284ACTN    H1 2838   4.876   2.070   0.360  0.4056  0.1227  0.0840
  284ACTN    H2 2839   4.827   2.117   0.522  1.5579 -0.8941  0.6608
  284ACTN    H3 2840   4.795   2.228   0.390  1.8766 -0.0755  2.3912
  285ACTN    H6 2841   3.123   4.683   4.708  1.8480 -0.4333 -0.4675
  285ACTN    C3 2842   3.135   4.685   4.817  0.5912 -1.3721 -0.2976
  285ACTN    H4 2843   3.046   4.659   4.875 -0.0213  1.6097  0.1911
  285ACTN    H5 2844   3.218   4.618   4.838 -0.6584 -2.1026  2.4564
  285ACTN    C2 2845   3.163   4.825   4.865  0.1519  0.2917 -0.2985
  285ACTN    O1 2846   3.159   4.917   4.780  0.1819  0.4704 -0.5630
  285ACTN    C1 2847   3.158   4.858   5.009  0.0046  0.1906 -0.1218
  285ACTN    H1 2848   3.218   4.945   5.035 -1.8436  1.6722 -0.6509
  285ACTN    H2 2849   3.203   4.781   5.072  1.1239  0.5591 -0.4719
  285ACTN    H3 2850   3.056   4.874   5.046  0.5984 -0.9073  2.0940
  286ACTN    H6 2851   3.906   4.632   7.096  2.1562 -1.9902  0.4805
  286ACTN    C3 2852   3.829   4.557   7.119 -0.2398  0.1544 -0.2629
  286ACTN    H4 2853   3.737   4.587   7.070 -1.4464  1.1247  2.4507
  286ACTN    H5 2854   3.864   4.464   7.075 -1.5548  0.3773 -1.7983
  286ACTN    C2 2855   3.818   4.543   7.265  0.8156 -0.1075 -0.1693
  286ACTN    O1 2856   3.806   4.640   7.339 -0.3055  0.2616  0.5470
  286ACTN    C1 2857   3.822   4.401   7.313  0.2321  0.1045  0.5190
  286ACTN    H1 2858   3.756   4.348   7.245  1.1805  0.2039 -0.4900
  286ACTN    H2 2859   3.795   4.388   7.418  2.8366  0.4878  1.2947
  286ACTN    H3 2860   3.927   4.373   7.305  0.7546  1.9215  0.6867
  287ACTN    H6 2861   0.539   6.069   4.379  0.3913  1.2190  2.5360
  287ACTN    C3 2862   0.640   6.059   4.340 -0.3532 -0.3598  0.9643
  287ACTN    H4 2863   0.631   6.135   4.263 -0.2633 -1.1647  0.1494
  287ACTN    H5 2864   0.725   6.093   4.399 -1.1010 -0.4089  2.0927
  287ACTN    C2 2865   0.679   5.937   4.270 -0.3688  0.0729  0.3496
  287ACTN    O1 2866   0.586   5.854   4.260 -0.5643  0.9098 -0.1489
  287ACTN    C1 2867   0.797   5.933   4.183  0.0156 -0.1260  0.0453
  287ACTN    H1 2868   0.875   5.916   4.257  0.0818  0.8290  0.2043
  287ACTN    H2 2869   0.819   6.018   4.119 -0.0784 -0.2605 -0.1670
  287ACTN    H3 2870   0.797   5.843   4.121 -0.7682  0.3995 -0.7186
  288ACTN    H6 2871   6.303   1.467   6.656 -1.5537 -0.7053 -2.9160
  288ACTN    C3 2872   6.210   1.442   6.707  0.0429 -0.3976  0.2898
  288ACTN    H4 2873   6.239   1.365   6.778 -0.9494  0.0860  1.2418
  288ACTN    H5 2874   6.165   1.529   6.754  1.2753  1.2483 -1.4754
  288ACTN    C2 2875   6.128   1.379   6.605 -0.1811 -0.0615  0.2904
  288ACTN    O1 2876   6.009   1.416   6.593  0.6574 -0.4837  0.2407
  288ACTN    C1 2877   6.186   1.275   6.517 -0.4439 -0.3918 -0.0551
  288ACTN    H1 2878   6.119   1.189   6.521  0.5747 -1.2999 -1.8208
  288ACTN    H2 2879   6.283   1.238   6.551  0.2227  1.1540 -0.2341
  288ACTN    H3 2880   6.189   1.311   6.414  1.0081 -0.5591 -0.0861
  289ACTN    H6 2881   5.533   6.301   7.172 -1.1118  1.5979 -2.0696
  289ACTN    C3 2882   5.632   6.345   7.160 -0.0311 -0.0988  0.3815
  289ACTN    H4 2883   5.641   6.413   7.245  2.9815 -0.9563  0.8330
  289ACTN    H5 2884   5.633   6.407   7.071 -1.4867 -0.4406  0.1209
  289ACTN    C2 2885   5.744   6.246   7.170  0.4681  0.6674 -0.0006
  289ACTN    O1 2886   5.797   6.223   7.281 -0.1243  0.1105 -0.1213
  289ACTN    C1 2887   5.753   6.138   7.072 -0.4421 -0.1470  0.9975
  289ACTN    H1 2888   5.743   6.037   7.112  3.5322 -1.0203  0.0217
  289ACTN    H2 2889   5.846   6.139   7.015 -1.8980 -0.5797 -1.4399
  289ACTN    H3 2890   5.676   6.151   6.996  0.7426  0.0861 -0.1910
  290ACTN    H6 2891   1.845   1.080   6.289  0.5253 -0.1677 -0.0472
  290ACTN    C3 2892   1.810   1.183   6.279 -0.1140 -0.3814 -0.0750
  290ACTN    H4 2893   1.864   1.228   6.196  1.7769  3.6171  3.1020
  290ACTN    H5 2894   1.707   1.166   6.250  0.5557 -0.8707 -2.2564
  290ACTN    C2 2895   1.812   1.263   6.405  0.2097 -0.2177 -0.6086
  290ACTN    O1 2896   1.812   1.384   6.400 -0.1948 -0.5821  0.0177
  290ACTN    C1 2897   1.767   1.201   6.532  0.2750  0.1158  0.3897
  290ACTN    H1 2898   1.775   1.092   6.522  2.7968  0.1561  1.5348
  290ACTN    H2 2899   1.661   1.219   6.553  0.0480 -1.2527  0.4733
  290ACTN    H3 2900   1.826   1.230   6.619  0.4914 -2.7243  1.2543
  291ACTN    H6 2901   2.329   1.109   2.857  1.3585 -0.3933 -1.6090
  291ACTN    C3 2902   2.392   1.028   2.893  0.0675 -0.6570  0.1333
  291ACTN    H4 2903   2.398   1.029   3.002 -0.7573  1.3816  0.1838
  291ACTN    H5 2904   2.337   0.937   2.869 -0.1896 -1.1183  2.3552
  291ACTN    C2 2905   2.538   1.044   2.832  0.6717  0.0723 -0.8882
  291ACTN    O1 2906   2.568   0.967   2.744 -0.1254 -0.3498  0.2588
  291ACTN    C1 2907   2.646   1.143   2.877 -0.1597  0.1298 -0.2869
  291ACTN    H1 2908   2.707   1.101   2.957  0.0582 -1.6594 -1.3797
  291ACTN    H2 2909   2.596   1.234   2.912  1.6352  0.6467  1.0172
  291ACTN    H3 2910   2.716   1.166   2.797  1.2656 -0.0588  0.8765
  292ACTN    H6 2911   4.075   5.194   1.869  0.1030  0.4379  2.9702
  292ACTN    C3 2912   4.050   5.293   1.833  0.8310 -0.4772 -0.1414
  292ACTN    H4 2913   3.948   5.293   1.796  0.8722  2.6694 -0.3670
  292ACTN    H5 2914   4.055   5.355   1.922  1.1411 -1.1811  0.3368
  292ACTN    C2 2915   4.150   5.347   1.739  0.4873 -0.4433 -0.4572
  292ACTN    O1 2916   4.175   5.291   1.629 -0.3873 -0.1640 -0.4108
  292ACTN    C1 2917   4.230   5.469   1.768  0.2016 -0.1747  0.2531
  292ACTN    H1 2918   4.228   5.506   1.871  0.8538  0.8819 -0.1077
  292ACTN    H2 2919   4.197   5.548   1.702 -0.4354 -1.1002 -0.5425
  292ACTN    H3 2920   4.336   5.447   1.750  0.6144 -0.0458  2.3518
  293ACTN    H6 2921   0.401   5.344   3.551 -1.3379  0.4613  1.6201
  293ACTN    C3 2922   0.426   5.431   3.490  0.0112 -0.7091  0.4496
  293ACTN    H4 2923   0.436   5.409   3.384  0.4151  0.7071  0.1800
  293ACTN    H5 2924   0.341   5.500   3.488  0.1452 -0.5733 -1.6967
  293ACTN    C2 2925   0.555   5.499   3.537 -0.4218  0.2849 -0.1539
  293ACTN    O1 2926   0.653   5.437   3.576 -0.1896  0.1099  0.5481
  293ACTN    C1 2927   0.572   5.637   3.493  0.4494 -0.3080 -0.7302
  293ACTN    H1 2928   0.646   5.639   3.413  0.0925  1.0654 -1.0396
  293ACTN    H2 2929   0.608   5.701   3.574  1.5561  0.2276 -1.6376
  293ACTN    H3 2930   0.481   5.679   3.451  0.2919 -1.9507 -2.0598
  294ACTN    H6 2931   3.189   4.730   3.489  2.1164  1.0773  1.1917
  294ACTN    C3 2932   3.217   4.758   3.387  0.0202 -0.0898  0.2369
  294ACTN    H4 2933   3.302   4.825   3.406  0.4716 -1.4552  3.2705
  294ACTN    H5 2934   3.253   4.675   3.327 -4.4220 -1.9446  0.0276
  294ACTN    C2 2935   3.100   4.829   3.314 -0.1888 -0.0610 -0.3929
  294ACTN    O1 2936   3.004   4.869   3.374  0.3394 -0.3701  0.3802
  294ACTN    C1 2937   3.118   4.845   3.170 -0.0933  0.9090 -0.5432
  294ACTN    H1 2938   3.222   4.869   3.146  0.6823 -1.4136  0.3719
  294ACTN    H2 2939   3.054   4.926   3.134 -1.9277 -0.3697 -0.2260
  294ACTN    H3 2940   3.100   4.748   3.124 -2.1432  1.4175 -0.8600
  295ACTN    H6 2941   0.210   5.721   4.435  1.0119  0.9242 -1.6155
  295ACTN    C3 2942   0.215   5.806   4.504 -0.2716 -0.3303  0.0623
  295ACTN    H4 2943   0.111   5.826   4.529 -0.8627 -1.6009 -1.3090
  295ACTN    H5 2944   0.271   5.774   4.592 -0.0005  0.7869  0.3015
  295ACTN    C2 2945   0.282   5.922   4.428  0.3050  0.0549 -0.3162
  295ACTN    O1 2946   0.338   6.006   4.503 -0.2473 -0.5920  0.1809
  295ACTN    C1 2947   0.229   5.950   4.290 -0.1680  0.7437 -0.0242
  295ACTN    H1 2948   0.183   6.048   4.300  2.0221  1.6542  1.2315
  295ACTN    H2 2949   0.154   5.879   4.254  0.2146  0.8189 -0.9795
  295ACTN    H3 2950   0.312   5.956   4.221 -0.9094 -0.5229 -1.0584
  296ACTN    H6 2951   1.973   0.396   2.628 -1.5473  0.2319 -1.3702
  296ACTN    C3 2952   1.931   0.444   2.717 -0.1695 -0.2589 -0.4399
  296ACTN    H4 2953   1.827   0.413   2.717  0.0675 -1.1968  2.0873
  296ACTN    H5 2954   1.975   0.407   2.809 -0.4496  0.1557 -0.1407
  296ACTN    C2 2955   1.948   0.592   2.714  0.5526  0.0942 -0.1083
  296ACTN    O1 2956   1.942   0.654   2.609  0.5760 -0.6435  0.0444
  296ACTN    C1 2957   1.995   0.669   2.830 -0.1254  0.2745 -0.4702
  296ACTN    H1 2958   2.084   0.722   2.797 -0.8114  0.9877 -1.1753
  296ACTN    H2 2959   2.024   0.605   2.914  0.5391 -1.0266 -1.6540
  296ACTN    H3 2960   1.917   0.743   2.847 -1.3088 -1.2815  1.1010
  297ACTN    H6 2961   1.768   1.816   3.847  3.0380 -1.1387  0.1256
  297ACTN    C3 2962   1.724   1.781   3.940  0.9716  0.8233 -0.0906
  297ACTN    H4 2963   1.698   1.867   4.003 -0.4216  0.0106  0.4666
  297ACTN    H5 2964   1.631   1.729   3.915  0.9981 -1.2307  3.6931
  297ACTN    C2 2965   1.803   1.680   4.019 -0.3015  0.0466 -0.2768
  297ACTN    O1 2966   1.892   1.712   4.096  0.1885 -0.0889  0.1023
  297ACTN    C1 2967   1.791   1.539   3.966  0.2995  0.0633 -0.8049
  297ACTN    H1 2968   1.800   1.535   3.858 -0.7140 -2.4799 -0.8294
  297ACTN    H2 2969   1.701   1.495   4.009 -0.0326 -0.1600 -1.7157
  297ACTN    H3 2970   1.875   1.481   4.003  0.1931  0.1424 -0.4376
  298ACTN    H6 2971   4.643   6.363   1.538  1.0202 -1.8549  0.5373
  298ACTN    C3 2972   4.732   6.407   1.492  0.0535 -0.1397  0.2548
  298ACTN    H4 2973   4.729   6.511   1.523 -1.0355 -0.1404  0.1755
  298ACTN    H5 2974   4.823   6.365   1.537 -1.0436 -1.8721  0.9317
  298ACTN    C2 2975   4.731   6.393   1.343 -0.8460 -0.1529 -0.1642
  298ACTN    O1 2976   4.629   6.422   1.279  0.6791 -0.4731 -0.1818
  298ACTN    C1 2977   4.856   6.378   1.269  0.3755 -0.9601  0.2801
  298ACTN    H1 2978   4.938   6.348   1.334  0.3532 -0.2882  0.6183
  298ACTN    H2 2979   4.878   6.477   1.229  1.2403 -0.4474  2.0120
  298ACTN    H3 2980   4.844   6.312   1.183 -0.5335 -0.7902  0.2669
  299ACTN    H6 2981   0.996   4.864   6.500  0.2679 -0.6770  0.7103
  299ACTN    C3 2982   0.934   4.800   6.437 -0.1350  0.0134  0.3964
  299ACTN    H4 2983   0.975   4.812   6.337 -0.0692  0.6213  0.4962
  299ACTN    H5 2984   0.948   4.698   6.474 -0.8016  0.2442  1.2969
  299ACTN    C2 2985   0.785   4.843   6.442 -0.7524  0.3061  0.1264
  299ACTN    O1 2986   0.702   4.755   6.458  0.2675  0.3176  0.6849
  299ACTN    C1 2987   0.744   4.987   6.438  0.9261  0.0574 -0.0871
  299ACTN    H1 2988   0.785   5.040   6.524 -0.0859  1.0619 -0.2127
  299ACTN    H2 2989   0.635   4.990   6.449  1.0070  0.4594  0.6559
  299ACTN    H3 2990   0.763   5.048   6.350 -0.0411  0.8714  0.2591
  300ACTN    H6 2991   6.709   6.598   1.384 -1.9956 -1.3484  1.3422
  300ACTN    C3 2992   6.757   6.534   1.458  0.4603 -0.8673  0.2218
  300ACTN    H4 2993   6.739   6.431   1.426 -2.8035 -0.9668  2.1275
  300ACTN    H5 2994   6.862   6.560   1.466 -0.4469  2.8389  0.6831
  300ACTN    C2 2995   6.694   6.547   1.600  0.8274  0.3916  0.2619
  300ACTN    O1 2996   6.685   6.658   1.655 -0.0353 -0.4856 -0.8268
  300ACTN    C1 2997   6.643   6.426   1.672 -0.3701 -0.0401  0.6733
  300ACTN    H1 2998   6.538   6.433   1.698 -0.1826  3.0041  0.8501
  300ACTN    H2 2999   6.705   6.410   1.760  1.6585  1.3347 -0.4419
  300ACTN    H3 3000   6.652   6.340   1.605 -0.8728  0.2134  0.2770
  301ACTN    H6 3001   3.201   1.329   5.880  0.4344 -1.9603 -0.1208
  301ACTN    C3 3002   3.103   1.307   5.838 -0.0367  0.2198 -0.1848
  301ACTN    H4 3003   3.024   1.350   5.900 -3.1641 -1.8844 -2.5881
  301ACTN    H5 3004   3.096   1.350   5.737  2.3965  0.4608 -0.2772
  301ACTN    C2 3005   3.109   1.156   5.823  0.0436  0.6104 -0.5515
  301ACTN    O1 3006   3.105   1.110   5.709 -0.4163 -0.0654 -0.2101
  301ACTN    C1 3007   3.152   1.073   5.943 -0.0369 -0.4968  0.5733
  301ACTN    H1 3008   3.249   1.113   5.973 -0.6670  1.0067  0.6672
  301ACTN    H2 3009   3.154   0.968   5.914 -0.3599  0.0855 -1.6707
  301ACTN    H3 3010   3.080   1.088   6.024 -0.1964  0.4787  0.2637
  302ACTN    H6 3011   1.420   1.183   5.891  2.1657  0.8442  0.5735
  302ACTN    C3 3012   1.465   1.223   5.800 -0.2091  0.0532 -0.9952
  302ACTN    H4 3013   1.423   1.180   5.709 -1.2007  0.9284 -0.9593
  302ACTN    H5 3014   1.456   1.331   5.811  1.3908 -0.1257  2.9580
  302ACTN    C2 3015   1.612   1.192   5.803  0.1916 -0.4601  0.4122
  302ACTN    O1 3016   1.650   1.129   5.900  0.4405  0.1625  0.4083
  302ACTN    C1 3017   1.709   1.254   5.699  0.6076  0.3619 -0.0841
  302ACTN    H1 3018   1.725   1.176   5.625 -0.3341  0.3479 -0.2900
  302ACTN    H2 3019   1.798   1.271   5.759  2.0229  1.7394 -2.5498
  302ACTN    H3 3020   1.672   1.343   5.648  2.3313  0.8892 -0.4477
  303ACTN    H6 3021   2.167   3.191   1.441 -0.0562 -0.4523  1.2006
  303ACTN    C3 3022   2.271   3.221   1.425 -0.2374 -0.1699  0.5505
  303ACTN    H4 3023   2.303   3.206   1.322 -0.7966  2.7467 -0.0983
  303ACTN    H5 3024   2.268   3.329   1.439  2.4809  0.1234 -0.8423
  303ACTN    C2 3025   2.358   3.153   1.522 -0.4806 -0.1600 -1.5507
  303ACTN    O1 3026   2.474   3.117   1.488  0.5975  0.3004 -0.1715
  303ACTN    C1 3027   2.300   3.108   1.659 -0.1852 -0.3429  0.1825
  303ACTN    H1 3028   2.340   3.012   1.690 -0.6936 -1.0003 -1.1737
  303ACTN    H2 3029   2.193   3.113   1.641  0.1269  0.9206 -1.4976
  303ACTN    H3 3030   2.332   3.188   1.726 -0.1820  0.3769 -0.6723
  304ACTN    H6 3031   3.732   3.773   1.684  1.7850 -3.3958  0.9196
  304ACTN    C3 3032   3.645   3.722   1.644  0.3174 -0.5913  0.4424
  304ACTN    H4 3033   3.639   3.732   1.535 -1.0121 -0.8148  0.4836
  304ACTN    H5 3034   3.649   3.615   1.666  1.0380 -0.6440  0.0723
  304ACTN    C2 3035   3.525   3.778   1.710  0.3538  0.1774 -0.4541
  304ACTN    O1 3036   3.495   3.891   1.689  0.3388  0.2244  0.3518
  304ACTN    C1 3037   3.425   3.690   1.776  0.4618  0.0234 -0.6307
  304ACTN    H1 3038   3.320   3.706   1.750 -1.1277 -4.5369  2.2181
  304ACTN    H2 3039   3.448   3.705   1.881 -3.3764 -0.3113  0.3385
  304ACTN    H3 3040   3.436   3.583   1.754  1.9221  0.3608 -1.5918
  305ACTN    H6 3041   1.124   1.442   4.851 -0.1505  1.7227  0.1449
  305ACTN    C3 3042   1.030   1.387   4.854  0.5855  0.4187 -0.2049
  305ACTN    H4 3043   1.046   1.279   4.852 -3.2427 -0.2390 -0.9302
  305ACTN    H5 3044   0.970   1.413   4.941 -0.7520 -1.1775 -0.6185
  305ACTN    C2 3045   0.958   1.444   4.732 -0.2583 -0.2056  0.6794
  305ACTN    O1 3046   0.958   1.386   4.624  0.1533 -0.0598  0.2743
  305ACTN    C1 3047   0.881   1.570   4.755 -0.0721  0.2486  0.2765
  305ACTN    H1 3048   0.816   1.588   4.669  2.2579  0.4319 -1.5111
  305ACTN    H2 3049   0.945   1.657   4.770 -2.0278  1.8153 -0.2961
  305ACTN    H3 3050   0.817   1.555   4.842  1.1118  0.9377  1.2758
  306ACTN    H6 3051   6.383   1.476   4.855 -0.0173  0.0632  0.0211
  306ACTN    C3 3052   6.448   1.389   4.845 -0.0873  0.0528 -0.3798
  306ACTN    H4 3053   6.404   1.329   4.766 -0.5915 -3.5228  2.4600
  306ACTN    H5 3054   6.550   1.410   4.813  0.1175 -1.1686 -0.5597
  306ACTN    C2 3055   6.454   1.300   4.961 -0.0503  0.5330 -0.1847
  306ACTN    O1 3056   6.543   1.319   5.041 -0.2195  0.3777 -0.0402
  306ACTN    C1 3057   6.330   1.216   4.995 -0.0288 -0.1119 -0.1696
  306ACTN    H1 3058   6.302   1.240   5.098  0.4543 -0.7877  0.1257
  306ACTN    H2 3059   6.339   1.110   4.970 -0.1163 -0.4238  1.0609
  306ACTN    H3 3060   6.243   1.255   4.942 -0.5092  0.0016  0.6801
  307ACTN    H6 3061   1.574   1.943   2.732 -0.3987 -2.6423 -1.2516
  307ACTN    C3 3062   1.669   1.922   2.780 -0.4780  0.3934  0.3844
  307ACTN    H4 3063   1.721   2.015   2.802  1.1564 -0.7704  1.5860
  307ACTN    H5 3064   1.646   1.871   2.874 -0.2341  2.7096  1.7260
  307ACTN    C2 3065   1.740   1.823   2.687  0.1968 -0.2988  0.1145
  307ACTN    O1 3066   1.692   1.713   2.665 -0.4605  0.1429  0.2235
  307ACTN    C1 3067   1.860   1.871   2.606 -0.5173  0.4189 -0.6948
  307ACTN    H1 3068   1.949   1.821   2.644  0.5098 -0.0853 -3.6135
  307ACTN    H2 3069   1.868   1.979   2.621 -0.3439  0.3277 -0.1230
  307ACTN    H3 3070   1.846   1.846   2.501 -0.8176  1.0024 -0.7997
  308ACTN    H6 3071   6.929   3.800   0.228 -0.6724 -3.2944 -4.1249
  308ACTN    C3 3072   7.032   3.787   0.196  1.0846 -0.0182 -0.2021
  308ACTN    H4 3073   7.046   3.694   0.143  2.1728  0.2286 -0.3675
  308ACTN    H5 3074   7.060   3.866   0.127 -0.6228  0.0399 -0.8427
  308ACTN    C2 3075   7.116   3.774   0.323  0.3272 -0.5760  0.0677
  308ACTN    O1 3076   7.096   3.704   0.418 -0.2465  0.0343  0.3552
  308ACTN    C1 3077   7.225   3.875   0.340 -0.4488  0.4763 -0.3010
  308ACTN    H1 3078   7.259   3.873   0.444  1.4895  1.0623 -0.9060
  308ACTN    H2 3079   7.199   3.978   0.316 -0.0581  0.5505 -0.4058
  308ACTN    H3 3080   7.315   3.848   0.284 -1.9684 -2.6610 -1.3626
  309ACTN    H6 3081   3.491   6.142   3.923 -1.0637  2.6123 -1.5927
  309ACTN    C3 3082   3.595   6.157   3.896 -0.3270 -0.5697 -0.7093
  309ACTN    H4 3083   3.654   6.068   3.875  0.8060  0.4814 -2.0904
  309ACTN    H5 3084   3.593   6.205   3.798 -1.3112 -0.9779 -0.8939
  309ACTN    C2 3085   3.662   6.252   3.995 -0.4200 -0.3429 -0.7130
  309ACTN    O1 3086   3.762   6.225   4.055 -0.4519  0.4402  0.1999
  309ACTN    C1 3087   3.597   6.393   3.984 -0.4521 -0.2248  0.0366
  309ACTN    H1 3088   3.491   6.394   4.009 -0.2773 -0.4327  0.7885
  309ACTN    H2 3089   3.614   6.431   3.883 -1.4454 -1.2618 -0.5395
  309ACTN    H3 3090   3.641   6.462   4.055 -0.7916 -0.2427  0.2690
  310ACTN    H6 3091   2.516   6.443   3.593 -0.7508  0.1590  0.8004
  310ACTN    C3 3092   2.421   6.414   3.548 -0.8246  0.6821  0.6170
  310ACTN    H4 3093   2.366   6.504   3.520  0.6214  0.7878 -2.0816
  310ACTN    H5 3094   2.443   6.355   3.460  0.1134 -0.7928  1.8075
  310ACTN    C2 3095   2.342   6.328   3.642 -0.4525  0.0792  0.7332
  310ACTN    O1 3096   2.282   6.381   3.732 -0.3174 -0.7729 -0.9567
  310ACTN    C1 3097   2.330   6.175   3.622  0.0613 -0.9999  0.0387
  310ACTN    H1 3098   2.402   6.116   3.679 -0.0662  0.1765  1.4482
  310ACTN    H2 3099   2.345   6.149   3.518  1.1620  0.6911 -0.2255
  310ACTN    H3 3100   2.235   6.131   3.655 -0.8139 -0.5581 -1.8308
  311ACTN    H6 3101   4.111   5.095   4.539 -0.4638 -0.6491 -0.3469
  311ACTN    C3 3102   4.199   5.082   4.476  0.5095 -0.1540  0.9095
  311ACTN    H4 3103   4.174   5.115   4.376  1.2598  0.1325  0.8106
  311ACTN    H5 3104   4.268   5.162   4.502 -1.0844  2.7873 -3.4316
  311ACTN    C2 3105   4.256   4.943   4.477 -0.2948  0.0864  0.5763
  311ACTN    O1 3106   4.198   4.847   4.436  0.0252 -0.0478  0.0800
  311ACTN    C1 3107   4.403   4.947   4.509  0.3282  0.1463  0.3427
  311ACTN    H1 3108   4.455   5.007   4.434  0.0418  0.5308  0.4528
  311ACTN    H2 3109   4.445   4.847   4.502  0.3495  0.0316  1.9321
  311ACTN    H3 3110   4.422   4.991   4.607  3.3794 -1.5643  0.5645
  312ACTN    H6 3111   3.156   3.967   1.457 -0.3390  0.7871 -0.7910
  312ACTN    C3 3112   3.261   3.967   1.430 -0.0287 -0.5786  0.3455
  312ACTN    H4 3113   3.282   4.049   1.361  0.0614 -0.5176  0.4459
  312ACTN    H5 3114   3.327   3.982   1.515  0.7845 -2.6490  0.1285
  312ACTN    C2 3115   3.302   3.831   1.368 -0.1407 -0.3091  0.4574
  312ACTN    O1 3116   3.417   3.797   1.343  0.2324  0.5550  1.1483
  312ACTN    C1 3117   3.201   3.724   1.358 -0.0836 -0.1998 -0.0184
  312ACTN    H1 3118   3.110   3.770   1.318  0.8444  2.7539  1.1709
  312ACTN    H2 3119   3.187   3.674   1.454 -0.6291  0.9557  0.5136
  312ACTN    H3 3120   3.230   3.644   1.289 -0.3662  0.1004 -0.4933
  313ACTN    H6 3121   0.934   3.918   2.754 -0.4342 -0.7100  0.4226
  313ACTN    C3 3122   1.013   3.926   2.830  0.2296  0.6351 -0.3875
  313ACTN    H4 3123   0.988   4.009   2.897  0.6413  1.3554 -1.1130
  313ACTN    H5 3124   0.996   3.844   2.900  0.7147  1.3875  0.6198
  313ACTN    C2 3125   1.151   3.910   2.774 -0.4413  0.3688  0.6977
  313ACTN    O1 3126   1.168   3.836   2.680 -0.1304  0.4697 -0.8268
  313ACTN    C1 3127   1.269   3.986   2.831 -0.7292  0.0869 -0.5002
  313ACTN    H1 3128   1.360   3.952   2.781  0.1670  0.2578  0.9909
  313ACTN    H2 3129   1.287   3.972   2.937 -0.2364  1.3159 -0.4203
  313ACTN    H3 3130   1.262   4.093   2.812  0.3971  0.3495  0.5056
  314ACTN    H6 3131   6.783   1.029   4.176 -2.0554 -0.4744  0.6550
  314ACTN    C3 3132   6.757   1.013   4.072  0.4584  0.0327 -0.0826
  314ACTN    H4 3133   6.673   0.945   4.059 -1.0300  1.9069 -0.5850
  314ACTN    H5 3134   6.733   1.101   4.011  3.0053  0.8613  0.0477
  314ACTN    C2 3135   6.880   0.948   4.011  0.7182 -0.3314  0.8329
  314ACTN    O1 3136   6.984   0.932   4.078 -0.1349 -0.0727 -0.6210
  314ACTN    C1 3137   6.867   0.876   3.880 -0.0301  0.0773  0.3616
  314ACTN    H1 3138   6.801   0.792   3.902  0.5893 -0.6044 -0.3444
  314ACTN    H2 3139   6.964   0.847   3.840 -0.2547  0.0058 -0.1423
  314ACTN    H3 3140   6.827   0.944   3.805  1.9621 -0.8732 -1.6138
  315ACTN    H6 3141   3.747   6.660   1.419 -0.6988  0.1175 -1.7416
  315ACTN    C3 3142   3.834   6.606   1.381  0.1756  0.1861  0.1107
  315ACTN    H4 3143   3.846   6.508   1.426  1.1977 -0.2204 -1.0455
  315ACTN    H5 3144   3.825   6.598   1.273 -1.0036  0.2670  0.1985
  315ACTN    C2 3145   3.958   6.685   1.403  0.0617  0.0353 -0.6733
  315ACTN    O1 3146   3.970   6.793   1.350 -0.0607  0.0141  0.5021
  315ACTN    C1 3147   4.066   6.630   1.494  0.2667 -0.1009  0.0266
  315ACTN    H1 3148   4.143   6.702   1.525  1.3563 -1.2608  0.0435
  315ACTN    H2 3149   4.108   6.538   1.454  0.0936 -0.0511 -0.2755
  315ACTN    H3 3150   4.016   6.606   1.587 -0.3680 -1.7984 -0.7303
  316ACTN    H6 3151   1.459   5.888   2.177  0.8629  0.0883 -0.7278
  316ACTN    C3 3152   1.558   5.921   2.210  0.4270  0.2253  0.4421
  316ACTN    H4 3153   1.616   5.926   2.118  0.0463 -0.8471  0.1312
  316ACTN    H5 3154   1.549   6.018   2.257  2.0011 -0.1026  1.4490
  316ACTN    C2 3155   1.620   5.836   2.314  0.3241  0.4284  0.6958
  316ACTN    O1 3156   1.731   5.783   2.296 -0.2871 -0.2072 -0.4233
  316ACTN    C1 3157   1.532   5.788   2.425  0.5696  0.4810 -0.5917
  316ACTN    H1 3158   1.449   5.857   2.437  1.2460  1.1853  0.1681
  316ACTN    H2 3159   1.579   5.779   2.523  0.3259  1.7715 -0.3397
  316ACTN    H3 3160   1.480   5.696   2.398  0.1200  0.5814 -0.0743
  317ACTN    H6 3161   3.469   6.787   4.848  1.2759  0.8064 -0.1408
  317ACTN    C3 3162   3.526   6.695   4.857  0.1068  0.1203  0.3722
  317ACTN    H4 3163   3.485   6.621   4.789 -0.9542 -0.5522  1.7146
  317ACTN    H5 3164   3.628   6.717   4.826 -0.1198  1.0724  0.2811
  317ACTN    C2 3165   3.505   6.654   5.004 -0.0200  0.5311  0.2477
  317ACTN    O1 3166   3.393   6.610   5.038  0.3298 -0.1861  0.9068
  317ACTN    C1 3167   3.626   6.631   5.081  0.1027  0.3516 -0.4537
  317ACTN    H1 3168   3.686   6.722   5.085  1.0115 -0.2760  0.6477
  317ACTN    H2 3169   3.681   6.541   5.053 -1.2671 -0.1176 -1.7477
  317ACTN    H3 3170   3.591   6.613   5.183 -2.3203 -0.9910 -1.4739
  318ACTN    H6 3171   6.023   3.224   5.586  1.1249 -1.3474 -5.7741
  318ACTN    C3 3172   6.045   3.330   5.573  0.6619 -0.5123 -0.6567
  318ACTN    H4 3173   6.131   3.361   5.631 -0.1981  1.7686 -0.5225
  318ACTN    H5 3174   6.068   3.348   5.468  0.7048  1.2423 -0.3624
  318ACTN    C2 3175   5.931   3.419   5.616 -0.1872 -0.1015 -0.4404
  318ACTN    O1 3176   5.909   3.525   5.566 -0.1898 -0.3185  0.1810
  318ACTN    C1 3177   5.880   3.395   5.755 -0.5156  0.7178  0.1026
  318ACTN    H1 3178   5.771   3.389   5.757 -0.4293 -0.7301  1.2820
  318ACTN    H2 3179   5.908   3.479   5.819  3.0693 -1.5428  1.6789
  318ACTN    H3 3180   5.913   3.299   5.795 -0.2536 -0.0549 -1.9154
  319ACTN    H6 3181   7.342   5.000   6.729  0.8283  1.1306 -0.5593
  319ACTN    C3 3182   7.276   5.033   6.649  0.0123 -0.0444 -0.3736
  319ACTN    H4 3183   7.218   4.948   6.612 -0.0104 -0.3138  0.2815
  319ACTN    H5 3184   7.202   5.104   6.686  1.3077  0.9029  0.4321
  319ACTN    C2 3185   7.353   5.087   6.534 -0.3818 -0.1645 -0.4835
  319ACTN    O1 3186   7.364   5.018   6.433 -0.1915 -0.0560 -0.5878
  319ACTN    C1 3187   7.377   5.239   6.535 -0.1593  0.3268  0.1653
  319ACTN    H1 3188   7.323   5.297   6.609  1.1415  1.4215  0.2650
  319ACTN    H2 3189   7.356   5.290   6.441  1.6819  1.9651  0.6241
  319ACTN    H3 3190   7.482   5.260   6.552  0.8158 -2.3754 -2.0039
  320ACTN    H6 3191   3.200   0.507   4.405 -0.4252 -1.4689  0.2182
  320ACTN    C3 3192   3.105   0.560   4.412  0.5153  0.3674 -0.6447
  320ACTN    H4 3193   3.123   0.663   4.381 -0.6035  1.2388  1.5151
  320ACTN    H5 3194   3.036   0.518   4.339  0.7118  0.9958 -1.2005
  320ACTN    C2 3195   3.064   0.547   4.557  0.3883 -0.6366  0.3630
  320ACTN    O1 3196   3.040   0.642   4.628  0.1698  0.2495  0.6130
  320ACTN    C1 3197   3.042   0.407   4.606 -0.0377 -0.0914  0.6325
  320ACTN    H1 3198   2.964   0.349   4.556  1.2093  0.5148 -2.0656
  320ACTN    H2 3199   3.016   0.426   4.710  2.3393  0.7260  1.1078
  320ACTN    H3 3200   3.138   0.354   4.606 -0.0012 -0.0409 -0.7583
  321ACTN    H6 3201   1.006   5.409   3.680  0.7240  0.1504  1.7047
  321ACTN    C3 3202   1.000   5.512   3.644  0.5714 -0.4910 -0.1528
  321ACTN    H4 3203   1.096   5.534   3.597  0.5282 -0.5186 -0.2536
  321ACTN    H5 3204   0.915   5.524   3.578 -1.4851  0.6320  2.6240
  321ACTN    C2 3205   0.983   5.601   3.761  0.0810  0.0319 -0.0963
  321ACTN    O1 3206   1.071   5.687   3.776 -0.3515 -0.2606  0.1833
  321ACTN    C1 3207   0.848   5.604   3.826 -1.0673  0.8879  0.2989
  321ACTN    H1 3208   0.781   5.682   3.791 -2.2375 -1.3392 -2.5458
  321ACTN    H2 3209   0.860   5.616   3.934 -1.0143 -1.0920  0.5353
  321ACTN    H3 3210   0.793   5.512   3.806 -0.3048  1.1811 -3.4463
  322ACTN    H6 3211   2.112   1.847   3.338  1.0013 -1.7469  1.2384
  322ACTN    C3 3212   2.135   1.906   3.427  0.0261  0.5491 -0.0003
  322ACTN    H4 3213   2.054   1.895   3.499  0.1811  1.2057  0.2759
  322ACTN    H5 3214   2.219   1.847   3.462  0.4066  1.0626 -0.0438
  322ACTN    C2 3215   2.178   2.047   3.392 -0.2759 -0.8373 -0.7078
  322ACTN    O1 3216   2.174   2.100   3.279 -0.7881  0.5299  0.3353
  322ACTN    C1 3217   2.237   2.129   3.509  0.5618 -0.1871 -0.7212
  322ACTN    H1 3218   2.175   2.217   3.526 -0.3841 -0.9256 -0.3220
  322ACTN    H2 3219   2.331   2.173   3.475 -0.5739  0.7681 -2.7141
  322ACTN    H3 3220   2.258   2.078   3.603  2.2769  2.2557  0.2872
  323ACTN    H6 3221   2.087   0.135   4.172 -0.3587  1.4828  2.2745
  323ACTN    C3 3222   2.177   0.104   4.226  0.2255  0.1692  0.5993
  323ACTN    H4 3223   2.135   0.054   4.314  0.2113 -0.4097  0.2648
  323ACTN    H5 3224   2.241   0.044   4.162 -2.0432  1.3611 -2.9228
  323ACTN    C2 3225   2.236   0.239   4.266 -0.2411  0.2711  0.2926
  323ACTN    O1 3226   2.157   0.323   4.310 -0.0930  0.3043 -0.0316
  323ACTN    C1 3227   2.387   0.263   4.264  0.5874 -0.7843  0.3263
  323ACTN    H1 3228   2.441   0.169   4.248  0.6218 -0.6486 -0.3887
  323ACTN    H2 3229   2.409   0.312   4.359 -0.2761  0.4537 -0.1064
  323ACTN    H3 3230   2.411   0.330   4.181  1.0906 -2.1287 -0.6399
  324ACTN    H6 3231   5.332   2.450   6.873  1.2580 -0.0476 -1.3360
  324ACTN    C3 3232   5.347   2.558   6.886  0.0063 -0.0394  0.1984
  324ACTN    H4 3233   5.443   2.578   6.933 -1.0398  0.2195  2.2460
  324ACTN    H5 3234   5.339   2.601   6.786 -2.4005 -1.7899 -0.4169
  324ACTN    C2 3235   5.248   2.612   6.978 -0.5811 -0.4971  0.2091
  324ACTN    O1 3236   5.131   2.580   6.950 -0.3143  0.4827 -0.2530
  324ACTN    C1 3237   5.281   2.675   7.110 -0.5348  0.0789 -0.0824
  324ACTN    H1 3238   5.223   2.620   7.185  0.1690 -2.2008 -1.1733
  324ACTN    H2 3239   5.247   2.779   7.114  0.0826  0.2671  0.3570
  324ACTN    H3 3240   5.388   2.674   7.132 -0.6112  0.6639  0.3504
  325ACTN    H6 3241   6.106   7.061   0.871  1.3476  2.8465  1.8465
  325ACTN    C3 3242   6.205   7.016   0.869 -0.1342 -0.5288 -0.4455
  325ACTN    H4 3243   6.193   6.910   0.890  0.1895 -1.0858 -2.9148
  325ACTN    H5 3244   6.227   7.011   0.763  1.2728 -0.9009 -0.1432
  325ACTN    C2 3245   6.307   7.083   0.954 -0.2313 -0.1726  0.1317
  325ACTN    O1 3246   6.383   7.159   0.895  0.1308  0.4114 -0.0675
  325ACTN    C1 3247   6.292   7.084   1.105 -0.7461 -0.0290  0.3534
  325ACTN    H1 3248   6.372   7.145   1.147 -0.8325  0.1038  0.3253
  325ACTN    H2 3249   6.293   6.985   1.151 -0.2603  0.0166  0.4409
  325ACTN    H3 3250   6.196   7.131   1.127  0.1280  1.8746  0.2360
  326ACTN    H6 3251   3.074   1.655   2.036 -0.6990  0.5393  1.3602
  326ACTN    C3 3252   3.073   1.633   2.142 -0.7431  0.3661  1.3234
  326ACTN    H4 3253   3.070   1.731   2.188  0.7408  0.4911  1.1734
  326ACTN    H5 3254   2.987   1.577   2.178 -1.0817 -0.4999 -0.7715
  326ACTN    C2 3255   3.202   1.566   2.176 -0.5885 -0.5241 -0.3817
  326ACTN    O1 3256   3.285   1.540   2.092 -0.6738  0.3419  0.3247
  326ACTN    C1 3257   3.240   1.533   2.321 -1.0314 -0.3283 -0.8029
  326ACTN    H1 3258   3.346   1.547   2.339 -1.3204 -0.6515  1.2970
  326ACTN    H2 3259   3.216   1.428   2.343 -1.1849 -0.6912 -2.6767
  326ACTN    H3 3260   3.189   1.604   2.386  0.4086  1.4037 -1.5448
  327ACTN    H6 3261   2.619   3.678   6.768 -1.6381 -0.8916  0.1484
  327ACTN    C3 3262   2.546   3.759   6.773  0.0245  0.6586 -0.0020
  327ACTN    H4 3263   2.449   3.726   6.735  0.9729 -2.4525  0.1041
  327ACTN    H5 3264   2.545   3.801   6.874  1.8675  0.7315 -0.0017
  327ACTN    C2 3265   2.584   3.861   6.678  0.2832 -0.9527 -0.9618
  327ACTN    O1 3266   2.569   3.982   6.703 -0.0538 -0.2907  0.4271
  327ACTN    C1 3267   2.669   3.824   6.559 -0.2790  0.2721 -0.2508
  327ACTN    H1 3268   2.684   3.716   6.551 -1.4373  0.0638  0.3346
  327ACTN    H2 3269   2.764   3.878   6.566 -0.5435  0.5737  1.0962
  327ACTN    H3 3270   2.616   3.853   6.468  0.1133 -2.1150 -1.2946
  328ACTN    H6 3271   2.230   1.450   3.515  0.7476  2.0140  1.4889
  328ACTN    C3 3272   2.131   1.495   3.505 -0.6156 -1.1922 -0.2194
  328ACTN    H4 3273   2.149   1.603   3.501 -2.5795 -0.8698 -0.5353
  328ACTN    H5 3274   2.082   1.460   3.414 -1.1828  1.2361 -0.9053
  328ACTN    C2 3275   2.052   1.457   3.622  0.4778  0.4776  0.4206
  328ACTN    O1 3276   1.945   1.511   3.640  0.0696 -0.2521 -0.5467
  328ACTN    C1 3277   2.087   1.343   3.711 -0.7333 -0.0071  0.6235
  328ACTN    H1 3278   2.028   1.260   3.673 -5.7124  3.2756  0.6547
  328ACTN    H2 3279   2.070   1.357   3.818 -0.0463 -0.8562  0.8472
  328ACTN    H3 3280   2.190   1.309   3.705 -0.5905  0.3024  1.3452
  329ACTN    H6 3281   3.706   6.437   4.400 -1.4033 -0.0607 -1.5462
  329ACTN    C3 3282   3.778   6.359   4.373 -0.2197  0.2400  0.6062
  329ACTN    H4 3283   3.822   6.310   4.460  1.1898 -1.0295 -0.7918
  329ACTN    H5 3284   3.731   6.283   4.311  0.3926 -2.0210  2.8552
  329ACTN    C2 3285   3.889   6.433   4.299 -0.4823 -0.4127  0.2274
  329ACTN    O1 3286   3.858   6.514   4.208 -0.5817 -0.3791  0.3540
  329ACTN    C1 3287   4.014   6.424   4.373  0.0795  0.1562 -0.3659
  329ACTN    H1 3288   3.995   6.428   4.480  3.2693  0.3186  0.2340
  329ACTN    H2 3289   4.079   6.505   4.341 -0.6874  1.3212  0.9578
  329ACTN    H3 3290   4.062   6.328   4.359 -0.6509  0.0688 -2.4574
  330ACTN    H6 3291   1.429   6.085   3.241  0.2345 -2.0878 -1.2798
  330ACTN    C3 3292   1.483   6.126   3.156 -0.1655  0.5895 -0.2969
  330ACTN    H4 3293   1.519   6.043   3.096 -1.3001  0.5857 -0.9898
  330ACTN    H5 3294   1.403   6.168   3.095  1.7710  1.9313 -1.9905
  330ACTN    C2 3295   1.591   6.219   3.200 -0.0972 -0.2508  0.0328
  330ACTN    O1 3296   1.705   6.219   3.150 -0.1344 -0.0361 -0.6778
  330ACTN    C1 3297   1.561   6.313   3.319  0.3935  0.5106  0.5732
  330ACTN    H1 3298   1.478   6.378   3.289  1.4178  1.0207 -1.2376
  330ACTN    H2 3299   1.643   6.379   3.347  1.6110 -0.8692  0.2846
  330ACTN    H3 3300   1.521   6.255   3.402  2.5565  1.6232  2.4463
  331ACTN    H6 3301   6.562   3.974   5.868 -1.1985 -0.6230 -2.2037
  331ACTN    C3 3302   6.616   3.879   5.874 -0.6542 -0.1729  0.6962
  331ACTN    H4 3303   6.722   3.903   5.861 -1.0270  0.3686 -1.5844
  331ACTN    H5 3304   6.606   3.839   5.975  0.1868 -0.6313  0.6057
  331ACTN    C2 3305   6.568   3.793   5.772  0.1316 -0.2715  0.0335
  331ACTN    O1 3306   6.454   3.805   5.738 -0.1881  0.5464 -0.2221
  331ACTN    C1 3307   6.668   3.717   5.701 -0.3472 -0.1089  0.2571
  331ACTN    H1 3308   6.717   3.777   5.624 -1.9681 -1.7254 -2.1229
  331ACTN    H2 3309   6.635   3.622   5.658  1.0474  0.2941 -1.7669
  331ACTN    H3 3310   6.739   3.686   5.777 -0.0635 -1.7184 -0.6400
  332ACTN    H6 3311   6.191   1.352   0.984 -2.3280 -0.5466  1.4243
  332ACTN    C3 3312   6.142   1.449   0.974 -0.4655  0.2185 -0.6907
  332ACTN    H4 3313   6.115   1.470   0.870 -2.1920  0.0455 -0.2984
  332ACTN    H5 3314   6.047   1.436   1.027  0.2384  1.3303  0.8696
  332ACTN    C2 3315   6.219   1.546   1.044 -0.8322 -0.4141 -0.1977
  332ACTN    O1 3316   6.339   1.539   1.078  0.5897 -0.6254  0.6152
  332ACTN    C1 3317   6.151   1.683   1.048 -0.2747  0.3961 -0.1996
  332ACTN    H1 3318   6.212   1.765   1.010 -0.3860  0.2026 -0.7965
  332ACTN    H2 3319   6.118   1.706   1.150  2.9768 -2.4638  1.6151
  332ACTN    H3 3320   6.061   1.677   0.987 -0.2025  1.7571 -0.4554
  333ACTN    H6 3321   2.433   0.204   0.378 -0.9559 -0.0095  0.6745
  333ACTN    C3 3322   2.353   0.266   0.339 -0.2405  0.6923  0.2969
  333ACTN    H4 3323   2.297   0.201   0.272 -0.5421 -0.8419  2.0008
  333ACTN    H5 3324   2.281   0.295   0.416  1.5435 -3.0687  3.5574
  333ACTN    C2 3325   2.400   0.382   0.266 -0.8430 -0.2380 -0.7505
  333ACTN    O1 3326   2.434   0.382   0.150  0.0292  0.0033 -0.3257
  333ACTN    C1 3327   2.409   0.514   0.346  0.5412  0.5438  0.3150
  333ACTN    H1 3328   2.377   0.495   0.448  3.1971  0.2378  1.1464
  333ACTN    H2 3329   2.353   0.595   0.301 -2.0519 -2.5346 -2.2779
  333ACTN    H3 3330   2.512   0.545   0.362  1.6249 -2.0610 -1.1632
  334ACTN    H6 3331   4.350   1.559   2.853 -0.2435  0.4395 -0.0375
  334ACTN    C3 3332   4.449   1.518   2.836 -0.3494  0.4281 -0.6241
  334ACTN    H4 3333   4.500   1.573   2.757 -1.0986  0.8625 -0.8080
  334ACTN    H5 3334   4.508   1.535   2.926  0.4896 -1.0778 -0.8749
  334ACTN    C2 3335   4.440   1.371   2.803  0.7556  0.3662 -0.4103
  334ACTN    O1 3336   4.536   1.318   2.742  0.1890  0.2790 -0.1704
  334ACTN    C1 3337   4.353   1.282   2.886 -0.3695 -0.5821  0.1905
  334ACTN    H1 3338   4.410   1.201   2.932  0.8329 -1.1060 -2.1433
  334ACTN    H2 3339   4.262   1.255   2.833  0.8344  0.5005 -2.4852
  334ACTN    H3 3340   4.313   1.350   2.962 -1.5733  0.7502 -1.6097
  335ACTN    H6 3341   2.473   5.608   1.807 -0.6313 -0.2589  0.0080
  335ACTN    C3 3342   2.391   5.636   1.741  0.0953  0.8036 -0.4512
  335ACTN    H4 3343   2.443   5.682   1.656 -0.0963  1.1414 -0.3869
  335ACTN    H5 3344   2.342   5.547   1.703  1.3470 -1.0038  2.0585
  335ACTN    C2 3345   2.287   5.729   1.808 -0.1311  0.4410  0.4277
  335ACTN    O1 3346   2.279   5.849   1.777 -0.3063 -0.0890 -0.0721
  335ACTN    C1 3347   2.183   5.662   1.883  0.0103  0.0162  0.0640
  335ACTN    H1 3348   2.210   5.636   1.985  1.1732 -0.6354 -0.3966
  335ACTN    H2 3349   2.174   5.560   1.844 -0.1580  0.7207 -1.8329
  335ACTN    H3 3350   2.085   5.711   1.877  0.7343  1.3559 -1.1553
  336ACTN    H6 3351   1.569   6.267   6.792 -0.6197  0.0737  0.9867
  336ACTN    C3 3352   1.481   6.206   6.772 -0.5534  0.2237  0.2032
  336ACTN    H4 3353   1.399   6.234   6.839 -1.3094 -0.4655 -0.4332
  336ACTN    H5 3354   1.449   6.220   6.669 -0.1767 -1.1634 -0.1048
  336ACTN    C2 3355   1.506   6.058   6.799 -0.2743 -0.6068  0.4957
  336ACTN    O1 3356   1.614   6.025   6.853 -0.1015 -0.1402 -0.2565
  336ACTN    C1 3357   1.408   5.951   6.759  0.0933 -0.1517  0.0391
  336ACTN    H1 3358   1.433   5.900   6.666  3.4445 -2.7954  2.3015
  336ACTN    H2 3359   1.306   5.985   6.736  0.4780 -0.7344 -2.7259
  336ACTN    H3 3360   1.407   5.873   6.834  0.0355 -0.2237 -0.0361
  337ACTN    H6 3361   3.515   1.277   4.429  0.8890 -0.7936  0.7786
  337ACTN    C3 3362   3.530   1.355   4.504  0.2630 -0.2668  0.3677
  337ACTN    H4 3363   3.626   1.326   4.546  0.9871  1.3870 -0.1466
  337ACTN    H5 3364   3.555   1.450   4.457  1.4793 -0.2960  0.9368
  337ACTN    C2 3365   3.413   1.367   4.598  0.5566 -0.7670  0.0652
  337ACTN    O1 3366   3.335   1.459   4.570  0.1405 -0.0463  0.0524
  337ACTN    C1 3367   3.375   1.258   4.687 -0.4269  0.0959 -0.6192
  337ACTN    H1 3368   3.367   1.310   4.782 -1.4886 -0.6956 -0.2705
  337ACTN    H2 3369   3.454   1.183   4.697  1.8747  2.1798 -2.3193
  337ACTN    H3 3370   3.280   1.209   4.666  0.1918 -2.2112  1.6619
  338ACTN    H6 3371   7.249   6.521   1.715  0.2500 -2.0443 -1.4340
  338ACTN    C3 3372   7.352   6.554   1.700  0.0200 -0.5877 -0.0081
  338ACTN    H4 3373   7.417   6.477   1.741  0.0755 -0.6229 -0.1648
  338ACTN    H5 3374   7.373   6.562   1.593 -1.0770  1.8086 -0.0677
  338ACTN    C2 3375   7.379   6.683   1.758  0.2226 -0.0240  0.6808
  338ACTN    O1 3376   7.490   6.732   1.735  0.5986  0.6757  0.1113
  338ACTN    C1 3377   7.290   6.725   1.864 -0.3264  0.5829  0.6808
  338ACTN    H1 3378   7.312   6.826   1.900 -0.7939  1.1728 -0.6544
  338ACTN    H2 3379   7.290   6.655   1.948 -0.6095  1.3283  1.3088
  338ACTN    H3 3380   7.191   6.720   1.820 -0.6119  1.7179  1.1576
  339ACTN    H6 3381   0.219   6.881   4.005 -0.5101 -0.6698  0.3508
  339ACTN    C3 3382   0.204   6.988   4.016  0.6365 -0.4657  0.0592
  339ACTN    H4 3383   0.152   7.007   4.111  0.1172  0.9232 -0.4931
  339ACTN    H5 3384   0.300   7.040   4.018  0.8197 -0.8244  0.8918
  339ACTN    C2 3385   0.113   7.039   3.910  0.5134  0.6832  0.0117
  339ACTN    O1 3386   0.160   7.046   3.797  0.1819  0.2859 -0.0011
  339ACTN    C1 3387  -0.019   7.104   3.942  0.1156 -0.3271 -0.0314
  339ACTN    H1 3388  -0.072   7.150   3.859  0.8587 -2.3307 -1.6695
  339ACTN    H2 3389   0.004   7.181   4.015 -0.6113  1.9646 -2.1504
  339ACTN    H3 3390  -0.083   7.028   3.988 -0.5944 -0.4482 -1.1873
  340ACTN    H6 3391   1.268   0.178   0.481  0.4951  0.0864  1.3618
  340ACTN    C3 3392   1.287   0.285   0.489  0.1559  0.2237  0.4141
  340ACTN    H4 3393   1.211   0.332   0.551 -3.7438 -1.4376 -2.8174
  340ACTN    H5 3394   1.384   0.302   0.534  1.4960 -2.0165 -1.4832
  340ACTN    C2 3395   1.293   0.350   0.355  0.0084  0.3642 -0.0050
  340ACTN    O1 3396   1.347   0.292   0.263  0.3588  0.4180 -0.3926
  340ACTN    C1 3397   1.242   0.493   0.327  0.0677 -0.1127 -0.4283
  340ACTN    H1 3398   1.221   0.520   0.224 -1.2193  3.0396  0.5871
  340ACTN    H2 3399   1.319   0.560   0.366 -0.5930 -0.1076  0.9194
  340ACTN    H3 3400   1.158   0.516   0.393 -0.3925 -2.3929 -0.1743
  341ACTN    H6 3401   0.740   5.579   2.926 -1.4928 -0.3874 -0.5146
  341ACTN    C3 3402   0.727   5.616   3.027  0.3168 -0.5081 -0.2165
  341ACTN    H4 3403   0.724   5.725   3.025  1.3064 -0.4765 -0.2093
  341ACTN    H5 3404   0.820   5.596   3.080  0.3567  0.2128 -0.0014
  341ACTN    C2 3405   0.618   5.552   3.113  1.4296  1.2040 -0.1790
  341ACTN    O1 3406   0.531   5.616   3.160 -0.1369 -0.2528 -0.2236
  341ACTN    C1 3407   0.663   5.418   3.169  0.2397  0.2060  0.2159
  341ACTN    H1 3408   0.677   5.422   3.277 -1.6599 -0.6514  0.5146
  341ACTN    H2 3409   0.749   5.381   3.112  0.9746  1.1360  0.7209
  341ACTN    H3 3410   0.580   5.350   3.147 -0.3842  1.0184  0.0033
  342ACTN    H6 3411   0.842   6.391   3.155  0.7684  0.0286  0.0847
  342ACTN    C3 3412   0.938   6.420   3.198  0.5484  0.5649  0.2209
  342ACTN    H4 3413   1.011   6.346   3.167 -1.0827 -2.5240  3.4089
  342ACTN    H5 3414   0.964   6.520   3.164 -2.4891  1.4224  0.2636
  342ACTN    C2 3415   0.939   6.434   3.346 -0.1034  0.6126  0.5166
  342ACTN    O1 3416   0.842   6.385   3.407  0.4279 -0.0208  0.1012
  342ACTN    C1 3417   1.042   6.515   3.415  0.1436 -0.3120  0.2770
  342ACTN    H1 3418   0.998   6.601   3.464 -0.6904 -1.3372  1.3365
  342ACTN    H2 3419   1.118   6.544   3.342  0.6433 -1.0574  0.4947
  342ACTN    H3 3420   1.099   6.462   3.491 -0.9211  0.1677  1.4302
  343ACTN    H6 3421   0.650   5.740   0.770  1.5510  0.0534  1.1715
  343ACTN    C3 3422   0.682   5.824   0.708 -0.1803  0.3030  0.6065
  343ACTN    H4 3423   0.747   5.885   0.770  2.1898 -0.6740 -0.8457
  343ACTN    H5 3424   0.739   5.789   0.622  1.0634 -0.1039  1.5774
  343ACTN    C2 3425   0.579   5.917   0.653 -0.3561 -0.1719 -0.1987
  343ACTN    O1 3426   0.490   5.866   0.582 -0.2283  0.4421 -0.2968
  343ACTN    C1 3427   0.589   6.063   0.685 -0.7443 -0.4012 -0.0849
  343ACTN    H1 3428   0.516   6.119   0.626 -0.7666 -0.6718 -0.3137
  343ACTN    H2 3429   0.685   6.109   0.662 -0.8786  0.8692  1.7375
  343ACTN    H3 3430   0.570   6.080   0.791 -1.8955 -3.6471  0.2718
  344ACTN    H6 3431   5.195   0.209   5.660 -1.6985 -0.8267  1.2588
  344ACTN    C3 3432   5.178   0.128   5.589  0.1469 -0.3344  0.2265
  344ACTN    H4 3433   5.222   0.038   5.631  0.1104 -0.9940 -1.1099
  344ACTN    H5 3434   5.070   0.119   5.579  0.3614  0.2334 -3.1561
  344ACTN    C2 3435   5.249   0.157   5.460  0.1568  0.0241 -0.4846
  344ACTN    O1 3436   5.373   0.158   5.458  0.0731 -0.3274  0.7176
  344ACTN    C1 3437   5.172   0.164   5.336  0.0089  0.0665 -0.0848
  344ACTN    H1 3438   5.132   0.068   5.307 -0.1775 -0.1317  0.8221
  344ACTN    H2 3439   5.244   0.192   5.259 -0.4532 -0.1155 -0.5784
  344ACTN    H3 3440   5.092   0.238   5.341 -1.3276 -1.5282  3.5845
  345ACTN    H6 3441   6.858   4.542   1.936  1.3983  1.1258 -1.5076
  345ACTN    C3 3442   6.811   4.640   1.943 -0.6598  0.0742  0.1524
  345ACTN    H4 3443   6.709   4.617   1.974 -0.6160  1.0760  1.0908
  345ACTN    H5 3444   6.861   4.693   2.024 -1.8603  0.0392  0.9334
  345ACTN    C2 3445   6.826   4.707   1.809 -0.2671  0.4489 -0.4285
  345ACTN    O1 3446   6.909   4.665   1.731  0.1286 -0.1961  0.1060
  345ACTN    C1 3447   6.713   4.786   1.749 -0.0617  0.3648 -0.1971
  345ACTN    H1 3448   6.688   4.869   1.815 -2.6828 -0.1873 -0.4450
  345ACTN    H2 3449   6.626   4.721   1.740 -1.9555  2.7501  0.4918
  345ACTN    H3 3450   6.740   4.822   1.650 -0.6191  1.3279  0.0007
  346ACTN    H6 3451   0.869   2.999   3.270 -1.1848 -1.3779 -2.4810
  346ACTN    C3 3452   0.826   3.088   3.225  0.5860  0.8885  0.1153
  346ACTN    H4 3453   0.908   3.143   3.179 -0.0585 -0.5870 -2.9157
  346ACTN    H5 3454   0.759   3.053   3.147 -0.9331  0.2110  1.6761
  346ACTN    C2 3455   0.742   3.171   3.313 -0.2232  0.0936 -0.1427
  346ACTN    O1 3456   0.632   3.128   3.348 -0.0159  0.1020 -0.0784
  346ACTN    C1 3457   0.808   3.293   3.377  0.0060  0.0264  0.1613
  346ACTN    H1 3458   0.857   3.278   3.474  4.1857  1.4598 -1.5786
  346ACTN    H2 3459   0.737   3.374   3.391 -0.0133 -0.3590  2.4790
  346ACTN    H3 3460   0.888   3.340   3.320 -0.4572  0.7018  0.0646
  347ACTN    H6 3461   5.537   2.500   4.988 -2.4299 -0.9368  2.8934
  347ACTN    C3 3462   5.439   2.512   4.942 -0.8714  0.5352 -0.2153
  347ACTN    H4 3463   5.365   2.462   5.004 -1.2414  0.5089 -0.6735
  347ACTN    H5 3464   5.409   2.617   4.939 -0.5787  0.6716  1.1146
  347ACTN    C2 3465   5.445   2.444   4.807  0.0219  0.5150  0.2247
  347ACTN    O1 3466   5.438   2.321   4.796 -0.5213 -0.0755  0.3624
  347ACTN    C1 3467   5.423   2.522   4.682  0.3707 -0.2229  0.2063
  347ACTN    H1 3468   5.518   2.566   4.653 -0.6848  1.4340 -0.8107
  347ACTN    H2 3469   5.361   2.611   4.681 -0.6107 -0.8955  0.3514
  347ACTN    H3 3470   5.383   2.465   4.597 -1.8032  0.1292  0.9746
  348ACTN    H6 3471   6.756   1.477   2.176  1.2302 -0.5157  1.1981
  348ACTN    C3 3472   6.685   1.537   2.233 -0.0245 -0.9742  0.1199
  348ACTN    H4 3473   6.743   1.586   2.311  0.0649  2.2563 -1.8741
  348ACTN    H5 3474   6.653   1.622   2.172  1.4238 -0.1160  0.5428
  348ACTN    C2 3475   6.574   1.455   2.281  0.1331  0.3287 -0.1945
  348ACTN    O1 3476   6.469   1.471   2.220  0.0350  0.2480  0.1020
  348ACTN    C1 3477   6.573   1.383   2.411 -0.2890 -0.3446  0.0838
  348ACTN    H1 3478   6.666   1.332   2.436 -0.4703 -0.4547  0.5480
  348ACTN    H2 3479   6.497   1.305   2.412 -1.0224  0.3590  2.4368
  348ACTN    H3 3480   6.567   1.453   2.494  2.7477 -0.5636  0.5597
  349ACTN    H6 3481   1.756   6.461   1.845  0.4228  0.8077  0.4680
  349ACTN    C3 3482   1.683   6.516   1.787  0.0391 -0.2442 -0.0412
  349ACTN    H4 3483   1.702   6.494   1.682  1.4505  1.4478 -0.1685
  349ACTN    H5 3484   1.590   6.468   1.817  0.1409  0.6027  1.6856
  349ACTN    C2 3485   1.680   6.666   1.829  0.2693  0.2590  1.6650
  349ACTN    O1 3486   1.743   6.700   1.930 -0.6244  0.5546  0.5222
  349ACTN    C1 3487   1.579   6.749   1.749  0.0576 -0.2331 -0.1081
  349ACTN    H1 3488   1.628   6.833   1.700  0.5613  0.3183  1.3012
  349ACTN    H2 3489   1.496   6.784   1.811 -1.4572  1.1227 -2.8344
  349ACTN    H3 3490   1.535   6.694   1.666 -0.1703  0.7245 -0.6325
  350ACTN    H6 3491   4.639   2.587   2.975 -0.3572 -0.3887  1.1787
  350ACTN    C3 3492   4.709   2.510   2.942 -0.2324  0.2813 -0.1539
  350ACTN    H4 3493   4.747   2.541   2.844  0.5002 -1.0373 -0.2970
  350ACTN    H5 3494   4.790   2.509   3.014 -2.1240 -0.3070  2.0134
  350ACTN    C2 3495   4.636   2.377   2.933 -0.1220 -0.5557  0.7013
  350ACTN    O1 3496   4.695   2.273   2.934 -0.2728  0.3277  0.1374
  350ACTN    C1 3497   4.487   2.377   2.931 -0.1620 -0.1633 -0.0903
  350ACTN    H1 3498   4.457   2.397   2.828  0.3474  0.3340 -0.1447
  350ACTN    H2 3499   4.447   2.451   3.000 -0.9347 -0.2619 -0.4192
  350ACTN    H3 3500   4.442   2.287   2.973  0.2226  1.1739  3.3235
  351ACTN    H6 3501   6.203   1.793   0.294 -1.7231 -0.7083  0.1251
  351ACTN    C3 3502   6.253   1.713   0.239 -0.2457  0.0121  0.3830
  351ACTN    H4 3503   6.270   1.747   0.136 -1.8335 -0.5914 -0.1079
  351ACTN    H5 3504   6.345   1.705   0.296  1.1560  1.7772 -1.5217
  351ACTN    C2 3505   6.190   1.579   0.237 -0.7631 -0.2896 -0.1479
  351ACTN    O1 3506   6.236   1.494   0.165 -0.1605  0.0230  0.3346
  351ACTN    C1 3507   6.086   1.550   0.338  0.2037  0.7920 -0.8096
  351ACTN    H1 3508   6.011   1.628   0.353  1.0606  1.3669  0.5759
  351ACTN    H2 3509   6.129   1.523   0.434 -1.7329 -0.6605 -0.3191
  351ACTN    H3 3510   6.032   1.459   0.311 -0.4381  0.9470 -0.0778
  352ACTN    H6 3511   6.232   3.073   4.130  2.0286  0.3179  1.2994
  352ACTN    C3 3512   6.154   3.052   4.203  0.6619 -0.1669 -0.2898
  352ACTN    H4 3513   6.188   2.968   4.263  3.3436  2.7886  2.4238
  352ACTN    H5 3514   6.143   3.135   4.272  0.7035 -1.9166  1.8567
  352ACTN    C2 3515   6.005   3.030   4.159 -0.6361  0.3858  0.1870
  352ACTN    O1 3516   5.932   2.951   4.222 -0.7989  0.3620 -0.6652
  352ACTN    C1 3517   5.950   3.098   4.039 -0.4649  0.2066 -0.4382
  352ACTN    H1 3518   6.004   3.071   3.948  3.5707  1.0085  1.6277
  352ACTN    H2 3519   5.968   3.204   4.056 -0.3094  0.1902 -0.5011
  352ACTN    H3 3520   5.844   3.077   4.023 -0.2238 -0.1107 -1.6360
  353ACTN    H6 3521   2.760   2.606   4.529 -0.2571 -1.1622  0.9529
  353ACTN    C3 3522   2.686   2.686   4.535  0.4967 -0.4187  0.6010
  353ACTN    H4 3523   2.726   2.785   4.554 -1.4049  0.2824  1.0599
  353ACTN    H5 3524   2.641   2.691   4.436  1.2676 -0.5730  0.2402
  353ACTN    C2 3525   2.587   2.659   4.646  0.0298  0.0046  0.3798
  353ACTN    O1 3526   2.601   2.563   4.722 -0.1296 -0.5098  0.0237
  353ACTN    C1 3527   2.470   2.746   4.683 -0.0193 -0.0229  0.7664
  353ACTN    H1 3528   2.413   2.775   4.595  2.7292 -0.3466 -1.2008
  353ACTN    H2 3529   2.500   2.833   4.742 -0.8383 -0.6328  2.1063
  353ACTN    H3 3530   2.398   2.687   4.739 -1.5745  1.3264  0.2380
  354ACTN    H6 3531   2.632   7.342   6.686  0.4897 -2.0272 -0.5007
  354ACTN    C3 3532   2.549   7.321   6.619 -0.2469  0.3826 -0.4020
  354ACTN    H4 3533   2.592   7.276   6.529 -2.2342 -0.0361 -1.1625
  354ACTN    H5 3534   2.502   7.417   6.599  0.8824  0.7930 -1.1117
  354ACTN    C2 3535   2.459   7.223   6.681  0.2517 -0.0165 -0.0716
  354ACTN    O1 3536   2.339   7.233   6.660  0.1971 -0.4823  0.1777
  354ACTN    C1 3537   2.508   7.126   6.783  0.2924  0.0292  0.6557
  354ACTN    H1 3538   2.444   7.039   6.784  1.3087 -0.7417 -0.4565
  354ACTN    H2 3539   2.503   7.170   6.883  0.2452 -0.0915  0.7065
  354ACTN    H3 3540   2.607   7.088   6.758 -0.0682  0.3233 -1.2656
  355ACTN    H6 3541   3.932   3.489   4.355  1.8181  1.3182  3.6331
  355ACTN    C3 3542   3.925   3.387   4.391 -0.6733 -0.0336 -0.4257
  355ACTN    H4 3543   3.898   3.377   4.496  0.2095 -1.1280 -0.2996
  355ACTN    H5 3544   3.850   3.336   4.330 -0.9586  0.1097 -0.1946
  355ACTN    C2 3545   4.057   3.317   4.374 -0.0627  0.0700 -0.3184
  355ACTN    O1 3546   4.156   3.377   4.362  0.4047 -0.5798 -0.4889
  355ACTN    C1 3547   4.053   3.173   4.369 -0.2473 -0.3223  0.5213
  355ACTN    H1 3548   4.106   3.135   4.281 -2.2522  2.3547 -1.9257
  355ACTN    H2 3549   3.950   3.141   4.349  0.5370 -1.3877 -2.0382
  355ACTN    H3 3550   4.094   3.130   4.461  3.6321 -1.5761 -1.6715
  356ACTN    H6 3551   2.189   1.644   4.024  0.5697  0.7890 -0.2250
  356ACTN    C3 3552   2.248   1.640   4.115 -0.3641  1.2122  0.4125
  356ACTN    H4 3553   2.347   1.671   4.084  0.0778  0.2520  0.8142
  356ACTN    H5 3554   2.204   1.706   4.189  1.1985  2.3302  0.3610
  356ACTN    C2 3555   2.238   1.503   4.172  0.0264  0.4801  0.2791
  356ACTN    O1 3556   2.310   1.408   4.154  0.1568  0.2548  0.1700
  356ACTN    C1 3557   2.113   1.481   4.248  0.2579  0.9096  0.3897
  356ACTN    H1 3558   2.141   1.398   4.314  1.4613  0.8459 -0.2046
  356ACTN    H2 3559   2.033   1.447   4.182  1.8097 -0.3870 -0.8601
  356ACTN    H3 3560   2.084   1.563   4.314 -0.6062  0.2259  0.8860
  357ACTN    H6 3561   0.206   2.937   4.678  1.5189  1.4012 -1.3280
  357ACTN    C3 3562   0.304   2.906   4.712  0.4296  0.0663  0.7106
  357ACTN    H4 3563   0.336   2.802   4.712 -0.6843 -0.3780  5.1235
  357ACTN    H5 3564   0.372   2.969   4.655 -0.9164  0.5008 -0.4354
  357ACTN    C2 3565   0.319   2.945   4.863  0.2430  0.9671  0.0682
  357ACTN    O1 3566   0.298   3.064   4.893  0.5862  0.2331  0.9348
  357ACTN    C1 3567   0.328   2.841   4.973 -0.4448 -0.5312  1.0021
  357ACTN    H1 3568   0.231   2.827   5.020 -1.3517  0.2442 -0.5616
  357ACTN    H2 3569   0.405   2.865   5.046  0.8304  2.6160 -1.2313
  357ACTN    H3 3570   0.348   2.742   4.933 -0.1461 -0.4686  0.9968
  358ACTN    H6 3571   1.601   7.059   2.542 -0.6169 -1.0012 -0.8539
  358ACTN    C3 3572   1.571   7.161   2.568  0.2939 -0.7679 -0.6923
  358ACTN    H4 3573   1.527   7.204   2.478 -2.1957 -1.9175 -0.0893
  358ACTN    H5 3574   1.486   7.160   2.636  1.3486 -0.7739  0.6478
  358ACTN    C2 3575   1.680   7.249   2.614 -0.5939  0.4905 -0.9367
  358ACTN    O1 3576   1.791   7.221   2.584  0.2288 -0.2945 -0.6619
  358ACTN    C1 3577   1.643   7.380   2.677  0.5964  0.3460 -1.0550
  358ACTN    H1 3578   1.536   7.394   2.665  0.5024  1.3415  0.7945
  358ACTN    H2 3579   1.692   7.467   2.634 -0.7129  0.8082 -1.6234
  358ACTN    H3 3580   1.660   7.374   2.784 -0.8541 -0.2308 -0.8390
  359ACTN    H6 3581   1.275   5.376   5.557  0.8935  1.6887 -1.8763
  359ACTN    C3 3582   1.190   5.393   5.491 -1.2462  0.0637  0.3548
  359ACTN    H4 3583   1.115   5.318   5.515 -0.6200 -0.8427 -0.4622
  359ACTN    H5 3584   1.152   5.489   5.524 -0.0132  0.6173  0.2001
  359ACTN    C2 3585   1.243   5.391   5.347 -0.0536 -0.5344 -0.6002
  359ACTN    O1 3586   1.278   5.498   5.296 -0.1726  0.4679 -0.4862
  359ACTN    C1 3587   1.256   5.258   5.295 -0.0731 -0.1699  0.3288
  359ACTN    H1 3588   1.291   5.252   5.192 -0.8107  2.1939 -0.0879
  359ACTN    H2 3589   1.169   5.195   5.309 -0.6592 -0.0476 -2.4823
  359ACTN    H3 3590   1.337   5.218   5.357  1.0111  0.3829 -0.7143
  360ACTN    H6 3591   5.556   6.259   0.095  0.1189 -0.0855  0.7579
  360ACTN    C3 3592   5.448   6.271   0.095  0.0798 -0.4171  0.4314
  360ACTN    H4 3593   5.435   6.375   0.064 -1.2752 -0.1792  1.7492
  360ACTN    H5 3594   5.418   6.196   0.022  0.6406 -1.1286  0.9303
  360ACTN    C2 3595   5.406   6.267   0.240 -0.0081 -0.2947 -1.0351
  360ACTN    O1 3596   5.487   6.238   0.325 -0.3879  0.0644 -0.4783
  360ACTN    C1 3597   5.261   6.288   0.277 -0.4532  0.2504 -0.3522
  360ACTN    H1 3598   5.249   6.387   0.321 -0.8084 -0.9274  2.3281
  360ACTN    H2 3599   5.242   6.219   0.360  1.6355  0.5786  0.4303
  360ACTN    H3 3600   5.201   6.272   0.188  0.2982  2.0471 -1.1985
  361ACTN    H6 3601   7.307   0.270   3.324  0.2536 -1.5118  1.6892
  361ACTN    C3 3602   7.405   0.294   3.364  0.8547 -0.0820 -0.5426
  361ACTN    H4 3603   7.461   0.201   3.363  0.6448 -0.2435  1.2716
  361ACTN    H5 3604   7.465   0.356   3.297 -1.5134  2.4677 -0.4186
  361ACTN    C2 3605   7.387   0.352   3.500 -0.5688  0.8226  0.2767
  361ACTN    O1 3606   7.274   0.375   3.541 -0.4385  0.1036 -0.2103
  361ACTN    C1 3607   7.501   0.368   3.596 -0.0005 -0.0064  0.1443
  361ACTN    H1 3608   7.563   0.278   3.591 -1.7543 -1.0956 -4.5887
  361ACTN    H2 3609   7.474   0.375   3.702  1.6329  0.7557  0.5274
  361ACTN    H3 3610   7.562   0.456   3.575 -0.6416  1.1479  2.8119
  362ACTN    H6 3611   6.237   2.464   2.932 -1.2386  0.1076 -2.7984
  362ACTN    C3 3612   6.342   2.449   2.908 -0.3481  0.4425  0.5467
  362ACTN    H4 3613   6.365   2.515   2.823 -0.5504 -0.0143  0.1333
  362ACTN    H5 3614   6.397   2.481   2.996 -1.6195 -1.0363  1.9036
  362ACTN    C2 3615   6.368   2.310   2.863 -0.6520 -0.2930  0.0557
  362ACTN    O1 3616   6.463   2.238   2.903 -0.4241 -0.3708 -0.2147
  362ACTN    C1 3617   6.284   2.257   2.749  0.1057 -0.4778  0.8438
  362ACTN    H1 3618   6.264   2.333   2.674 -1.9513 -0.1544  1.6716
  362ACTN    H2 3619   6.190   2.228   2.798 -0.3233  2.0398  1.5500
  362ACTN    H3 3620   6.330   2.168   2.706  1.7321  1.0885 -0.7413
  363ACTN    H6 3621   5.696   5.883   2.853 -2.4832 -2.5245  0.6180
  363ACTN    C3 3622   5.633   5.944   2.918 -0.5816  0.3572 -0.1795
  363ACTN    H4 3623   5.528   5.919   2.904 -0.1728 -0.8268 -1.2211
  363ACTN    H5 3624   5.651   5.939   3.025  2.4284  0.3061 -0.6367
  363ACTN    C2 3625   5.663   6.085   2.881 -0.2290  0.4223  0.1955
  363ACTN    O1 3626   5.688   6.171   2.966 -0.3581  0.2052 -0.0712
  363ACTN    C1 3627   5.630   6.135   2.742  0.1084 -0.3361 -0.1303
  363ACTN    H1 3628   5.648   6.242   2.747  0.4512 -0.5093  5.1479
  363ACTN    H2 3629   5.522   6.125   2.733  0.1146 -0.0496 -0.5402
  363ACTN    H3 3630   5.680   6.085   2.659  0.3128 -1.4382  0.6475
  364ACTN    H6 3631   7.081   6.626   5.821  2.6811 -0.5550  0.6306
  364ACTN    C3 3632   7.100   6.691   5.736  0.0896 -0.7628 -0.1385
  364ACTN    H4 3633   7.125   6.785   5.785 -1.2561 -0.0017 -0.8528
  364ACTN    H5 3634   7.178   6.654   5.670 -0.3753 -1.0066 -0.5594
  364ACTN    C2 3635   6.968   6.709   5.658 -0.4430  0.5965 -0.5564
  364ACTN    O1 3636   6.934   6.818   5.615 -0.1119 -0.2444  0.1604
  364ACTN    C1 3637   6.880   6.587   5.642 -0.2093  0.4477  1.1872
  364ACTN    H1 3638   6.874   6.581   5.533  2.5188 -0.5765  1.0571
  364ACTN    H2 3639   6.783   6.617   5.681 -0.5486 -0.9732  1.4600
  364ACTN    H3 3640   6.903   6.493   5.692  0.3578 -2.4556 -4.1102
  365ACTN    H6 3641   3.831   3.955   3.204  0.8739 -0.2589  0.0575
  365ACTN    C3 3642   3.796   3.854   3.224  0.1002 -0.0748 -0.3456
  365ACTN    H4 3643   3.740   3.853   3.317  2.0592 -0.8185  0.8602
  365ACTN    H5 3644   3.720   3.830   3.149 -0.9991  0.5204  0.5590
  365ACTN    C2 3645   3.905   3.748   3.240  0.5594 -0.0036 -0.6101
  365ACTN    O1 3646   3.987   3.760   3.332 -0.0700 -1.0632 -0.2512
  365ACTN    C1 3647   3.906   3.646   3.129  0.2124 -0.1666 -0.4292
  365ACTN    H1 3648   3.926   3.547   3.170  0.5778  0.2892  0.5176
  365ACTN    H2 3649   3.979   3.676   3.054  0.2613  0.3260 -0.1890
  365ACTN    H3 3650   3.816   3.634   3.069 -0.2697 -2.7857  0.7189
  366ACTN    H6 3651   5.282   5.306   0.351 -0.3973  0.5649 -1.7647
  366ACTN    C3 3652   5.369   5.371   0.355  0.4223 -0.6085 -0.1390
  366ACTN    H4 3653   5.454   5.306   0.338  0.4824 -0.5378 -0.1115
  366ACTN    H5 3654   5.369   5.452   0.283 -1.9784 -0.0783  0.3907
  366ACTN    C2 3655   5.366   5.432   0.486  0.2484 -0.1536 -0.3647
  366ACTN    O1 3656   5.267   5.482   0.534  0.6773  0.1547 -0.2076
  366ACTN    C1 3657   5.490   5.415   0.566 -0.5926  0.6259 -0.6974
  366ACTN    H1 3658   5.505   5.494   0.639  1.9377  1.9800 -2.6119
  366ACTN    H2 3659   5.585   5.403   0.514 -0.5982  0.2939 -0.6313
  366ACTN    H3 3660   5.483   5.323   0.623 -0.8044  1.9544  1.4812
  367ACTN    H6 3661   0.413   0.543   3.899  0.4293  1.6415  0.4536
  367ACTN    C3 3662   0.324   0.551   3.962 -0.1644 -0.3064 -0.1203
  367ACTN    H4 3663   0.345   0.502   4.057 -0.9920  0.6551  0.5657
  367ACTN    H5 3664   0.249   0.495   3.905  0.3150 -0.4305 -0.6375
  367ACTN    C2 3665   0.302   0.694   3.987 -0.0091 -0.3609  0.4068
  367ACTN    O1 3666   0.309   0.768   3.887  0.2981 -0.0638 -0.3581
  367ACTN    C1 3667   0.203   0.718   4.095 -0.2107 -0.1306 -0.0768
  367ACTN    H1 3668   0.221   0.643   4.172  3.1840 -0.1500 -0.7882
  367ACTN    H2 3669   0.099   0.697   4.071  0.0382 -0.7478 -0.6390
  367ACTN    H3 3670   0.199   0.820   4.131  1.8038  1.5668 -4.3116
  368ACTN    H6 3671   7.211   5.509   0.358 -0.2506  0.1445 -0.0094
  368ACTN    C3 3672   7.155   5.599   0.331 -0.2703  0.0875 -0.1546
  368ACTN    H4 3673   7.141   5.600   0.223 -1.3872 -0.0854 -0.0161
  368ACTN    H5 3674   7.056   5.601   0.376  0.9363 -1.7927  2.7032
  368ACTN    C2 3675   7.245   5.713   0.373  0.2522  0.2265 -0.2712
  368ACTN    O1 3676   7.236   5.750   0.487 -0.5816 -0.3380 -0.3829
  368ACTN    C1 3677   7.318   5.796   0.275  0.1401  0.1260 -0.2752
  368ACTN    H1 3678   7.247   5.843   0.208 -1.1464 -0.0190  0.9515
  368ACTN    H2 3679   7.396   5.742   0.222  1.0355  0.3987  0.7493
  368ACTN    H3 3680   7.376   5.876   0.320 -2.5777  2.1969 -0.3705
  369ACTN    H6 3681   3.366   6.511   4.493 -0.8428  2.0557 -0.7384
  369ACTN    C3 3682   3.313   6.510   4.588  0.1954  0.0011 -0.1402
  369ACTN    H4 3683   3.348   6.428   4.649 -1.7505 -0.3975  0.4931
  369ACTN    H5 3684   3.331   6.597   4.652 -0.6057 -0.5199  0.8223
  369ACTN    C2 3685   3.166   6.493   4.561  0.2678  0.2980  0.2154
  369ACTN    O1 3686   3.105   6.396   4.601  0.3166  0.5658 -0.2582
  369ACTN    C1 3687   3.109   6.583   4.455 -0.3432 -0.3706 -0.4393
  369ACTN    H1 3688   3.009   6.549   4.429 -1.2178  2.1101 -0.4832
  369ACTN    H2 3689   3.172   6.569   4.367  0.5955 -0.2063  0.1976
  369ACTN    H3 3690   3.107   6.690   4.479 -0.2328 -0.0786 -1.6667
  370ACTN    H6 3691   6.943   0.388   0.050 -0.7117  0.4014 -0.3211
  370ACTN    C3 3692   7.050   0.378   0.027 -0.5648  0.0982  0.4774
  370ACTN    H4 3693   7.078   0.284  -0.021  1.9524  1.6750 -1.2430
  370ACTN    H5 3694   7.103   0.383   0.122 -0.4090  1.1548  0.3378
  370ACTN    C2 3695   7.098   0.491  -0.060 -0.3812  0.0400  0.6008
  370ACTN    O1 3696   7.049   0.500  -0.173 -0.0579  0.4910 -0.0111
  370ACTN    C1 3697   7.169   0.608   0.010  0.0925  0.1817 -0.5026
  370ACTN    H1 3698   7.125   0.705  -0.015 -0.3827 -0.2270 -1.2758
  370ACTN    H2 3699   7.270   0.616  -0.031  0.0429 -3.2386 -1.4623
  370ACTN    H3 3700   7.164   0.598   0.118  1.3761  0.5895 -0.3975
  371ACTN    H6 3701   7.338   4.954   5.191 -1.0586 -0.9725  0.8317
  371ACTN    C3 3702   7.414   4.899   5.246  0.0683  0.2734  0.5401
  371ACTN    H4 3703   7.378   4.895   5.349 -1.1090  3.1646  0.3139
  371ACTN    H5 3704   7.438   4.800   5.209  1.2066  1.0580 -0.8427
  371ACTN    C2 3705   7.538   4.978   5.227  0.4913 -0.0283 -0.3365
  371ACTN    O1 3706   7.614   5.018   5.316  0.5855  0.7499 -0.2333
  371ACTN    C1 3707   7.590   5.004   5.089  0.0614 -0.2441  0.0139
  371ACTN    H1 3708   7.539   5.092   5.049 -1.1484 -2.0373 -2.4838
  371ACTN    H2 3709   7.570   4.918   5.026  1.6873 -1.9624  1.7715
  371ACTN    H3 3710   7.697   5.027   5.084 -0.0748  0.4502  0.1345
  372ACTN    H6 3711   1.541   5.479   0.940  0.5020  0.8135 -2.1603
  372ACTN    C3 3712   1.497   5.575   0.965  0.1203  0.2269 -0.5035
  372ACTN    H4 3713   1.422   5.601   0.890 -1.4075 -1.7544  0.2888
  372ACTN    H5 3714   1.454   5.552   1.062  0.2343 -1.4612 -0.8435
  372ACTN    C2 3715   1.611   5.673   0.987 -0.0562 -0.3332  0.7016
  372ACTN    O1 3716   1.620   5.777   0.921  0.0437  0.0433  0.5160
  372ACTN    C1 3717   1.704   5.652   1.110  0.2149 -0.0207  0.1361
  372ACTN    H1 3718   1.729   5.549   1.135  2.6297  0.7399  1.0393
  372ACTN    H2 3719   1.656   5.707   1.192  0.7326  0.0447  0.3995
  372ACTN    H3 3720   1.801   5.696   1.090  1.1843 -0.6762  3.0373
  373ACTN    H6 3721   0.047   1.302   5.643 -2.4969 -2.4779 -0.5602
  373ACTN    C3 3722   0.017   1.276   5.744 -0.0822 -0.3396  0.7510
  373ACTN    H4 3723  -0.004   1.365   5.804 -1.9925 -0.5914  0.4873
  373ACTN    H5 3724  -0.076   1.220   5.733  0.0215 -0.1235 -1.2607
  373ACTN    C2 3725   0.112   1.191   5.821 -0.4424  0.1089  0.1961
  373ACTN    O1 3726   0.093   1.076   5.847 -0.1158  0.4593  0.0627
  373ACTN    C1 3727   0.250   1.247   5.847  0.0692 -0.1291 -0.3921
  373ACTN    H1 3728   0.251   1.269   5.954 -1.3234  2.9562 -0.9739
  373ACTN    H2 3729   0.269   1.340   5.794  2.5989 -1.5557 -2.1316
  373ACTN    H3 3730   0.331   1.176   5.833 -2.5371 -3.3787  0.2470
  374ACTN    H6 3731   0.613   1.318   4.078  0.0807  2.7129 -1.5410
  374ACTN    C3 3732   0.698   1.339   4.144 -0.3823  0.4231 -0.1772
  374ACTN    H4 3733   0.781   1.374   4.082 -1.8231  1.3817 -1.6149
  374ACTN    H5 3734   0.675   1.419   4.214  0.9375 -0.9334  1.8349
  374ACTN    C2 3735   0.720   1.212   4.218  0.4078  0.1107  0.8528
  374ACTN    O1 3736   0.746   1.109   4.152 -0.1919  0.3209  0.0842
  374ACTN    C1 3737   0.706   1.213   4.371 -0.2848  0.5485 -0.2234
  374ACTN    H1 3738   0.773   1.292   4.406 -0.9599  0.6187  0.9368
  374ACTN    H2 3739   0.744   1.118   4.410  2.1607  2.4566  2.2670
  374ACTN    H3 3740   0.605   1.232   4.406  0.3161  2.1335  0.6984
  375ACTN    H6 3741   2.977   0.668   0.467  2.3419 -0.8719 -0.3794
  375ACTN    C3 3742   3.013   0.767   0.493  0.1722 -0.0484 -0.3717
  375ACTN    H4 3743   3.121   0.756   0.478  0.6519  2.1023  1.2001
  375ACTN    H5 3744   2.973   0.845   0.428 -2.3316 -0.8162  0.1999
  375ACTN    C2 3745   3.008   0.793   0.638  0.2077 -0.1016 -0.2724
  375ACTN    O1 3746   2.957   0.722   0.722 -0.0695  0.4000 -0.5705
  375ACTN    C1 3747   3.062   0.926   0.678  0.7117  0.2091 -0.9587
  375ACTN    H1 3748   2.986   0.979   0.735  0.1119 -0.9943 -0.6262
  375ACTN    H2 3749   3.085   0.997   0.598 -1.0060  0.7979 -0.9399
  375ACTN    H3 3750   3.154   0.906   0.733  0.1351  3.3517  1.2874
  376ACTN    H6 3751   3.389   7.104   0.208 -0.2551 -1.6846 -1.5949
  376ACTN    C3 3752   3.361   7.023   0.275 -0.7568  0.0266  0.3217
  376ACTN    H4 3753   3.454   6.995   0.323 -1.3188 -1.4704  0.5576
  376ACTN    H5 3754   3.299   7.055   0.359 -2.3588 -3.3001  0.4809
  376ACTN    C2 3755   3.312   6.902   0.207  0.5237 -0.2936  0.3430
  376ACTN    O1 3756   3.224   6.899   0.124  0.5227 -0.3192  0.0131
  376ACTN    C1 3757   3.360   6.769   0.244  0.3916 -0.3712  0.0243
  376ACTN    H1 3758   3.469   6.767   0.236  0.3124 -1.6316 -0.9926
  376ACTN    H2 3759   3.323   6.682   0.188 -0.0334 -0.0461 -0.2003
  376ACTN    H3 3760   3.344   6.744   0.348  1.0157 -1.4991 -0.1439
  377ACTN    H6 3761   6.555   7.144   5.560  1.7319 -0.2295  0.8448
  377ACTN    C3 3762   6.524   7.039   5.561 -0.3856  0.3561 -0.2187
  377ACTN    H4 3763   6.440   7.035   5.491 -0.4654 -2.4973 -0.0161
  377ACTN    H5 3764   6.617   6.989   5.535 -0.3565  0.3822 -0.1653
  377ACTN    C2 3765   6.474   7.020   5.703 -0.8194  0.1702  0.1880
  377ACTN    O1 3766   6.518   6.928   5.775  0.5150  0.2896  0.0138
  377ACTN    C1 3767   6.401   7.129   5.774  0.1697 -0.3750  1.0192
  377ACTN    H1 3768   6.373   7.091   5.872  2.0779 -0.4881  1.5367
  377ACTN    H2 3769   6.306   7.155   5.726 -0.6475  0.1182  2.8815
  377ACTN    H3 3770   6.463   7.219   5.779  0.7650 -0.6301 -0.9752
  378ACTN    H6 3771   1.380   6.573   6.101  0.5207 -0.0155  1.5358
  378ACTN    C3 3772   1.385   6.468   6.073 -0.5228  0.1587  0.6605
  378ACTN    H4 3773   1.284   6.430   6.058  0.2549 -1.2445 -1.1847
  378ACTN    H5 3774   1.433   6.472   5.976  2.6209  2.8649  2.2347
  378ACTN    C2 3775   1.474   6.397   6.170 -0.1647 -0.6502 -0.0150
  378ACTN    O1 3776   1.441   6.356   6.277  0.2046  0.1908  0.1759
  378ACTN    C1 3777   1.606   6.351   6.124 -0.0293  0.7407  0.3111
  378ACTN    H1 3778   1.613   6.243   6.133  0.8249  0.6367 -1.3529
  378ACTN    H2 3779   1.682   6.399   6.185  1.9697  0.9801 -2.2530
  378ACTN    H3 3780   1.625   6.373   6.019 -1.5389 -0.6400 -0.2657
  379ACTN    H6 3781   0.162   4.340   3.334  1.0718 -0.6014 -1.7449
  379ACTN    C3 3782   0.257   4.393   3.333  0.4951  0.5371  0.5570
  379ACTN    H4 3783   0.228   4.496   3.353 -1.0602 -0.1676  1.9860
  379ACTN    H5 3784   0.319   4.358   3.416  2.0957  0.9603 -0.4205
  379ACTN    C2 3785   0.332   4.375   3.210  0.2397  0.4136  0.8581
  379ACTN    O1 3786   0.294   4.421   3.107 -0.1448 -0.3924  0.1683
  379ACTN    C1 3787   0.450   4.284   3.214 -1.2037  0.1976  0.6682
  379ACTN    H1 3788   0.527   4.335   3.272  1.7084 -0.2802 -2.6750
  379ACTN    H2 3789   0.482   4.255   3.114  1.0122 -3.7871  2.4192
  379ACTN    H3 3790   0.427   4.193   3.270 -2.0990 -0.0021 -0.0048
  380ACTN    H6 3791   1.079   4.598   4.653 -2.1192  1.2614 -0.4745
  380ACTN    C3 3792   1.042   4.501   4.687 -0.0509  0.5249 -0.3037
  380ACTN    H4 3793   0.981   4.456   4.609 -0.3159  1.1540 -0.4665
  380ACTN    H5 3794   1.133   4.444   4.706 -1.3059 -1.6453 -0.6210
  380ACTN    C2 3795   0.964   4.526   4.811  0.2994 -0.4692 -0.2709
  380ACTN    O1 3796   1.027   4.505   4.915 -0.3379  0.1667 -0.0856
  380ACTN    C1 3797   0.814   4.521   4.823  0.2876  0.1545 -0.0511
  380ACTN    H1 3798   0.780   4.549   4.922  1.4334  0.4340  0.2633
  380ACTN    H2 3799   0.786   4.417   4.806  0.6289  0.0184  0.2181
  380ACTN    H3 3800   0.767   4.582   4.746 -0.3190 -1.7015 -1.2054
  381ACTN    H6 3801   3.026   1.640   4.788 -1.3048  4.3001 -0.2488
  381ACTN    C3 3802   3.124   1.678   4.756  0.2261  0.4192 -0.4368
  381ACTN    H4 3803   3.140   1.654   4.651  1.7185  0.1911 -0.1612
  381ACTN    H5 3804   3.139   1.785   4.746  1.3989  0.3073  0.0098
  381ACTN    C2 3805   3.219   1.625   4.862  0.3906 -0.0595 -0.4877
  381ACTN    O1 3806   3.219   1.507   4.897  0.5292  0.3453  0.6300
  381ACTN    C1 3807   3.259   1.721   4.967 -0.1099 -1.0827 -0.4817
  381ACTN    H1 3808   3.188   1.803   4.977  0.2238 -0.8215 -0.2626
  381ACTN    H2 3809   3.346   1.775   4.931  0.4162 -1.8338 -0.3336
  381ACTN    H3 3810   3.279   1.677   5.065 -4.2785 -0.4111  0.8089
  382ACTN    H6 3811   6.716   1.873   5.664  1.3920 -0.3720 -1.7567
  382ACTN    C3 3812   6.650   1.788   5.643  0.5278 -0.1286 -0.0759
  382ACTN    H4 3813   6.629   1.741   5.739  1.3974 -1.0876 -0.3438
  382ACTN    H5 3814   6.558   1.839   5.611  0.0529 -1.0153 -0.1258
  382ACTN    C2 3815   6.719   1.694   5.535  0.0466 -0.3003  0.3121
  382ACTN    O1 3816   6.741   1.740   5.426 -0.2101 -0.3063  0.8901
  382ACTN    C1 3817   6.798   1.572   5.572  0.5568  0.3781  0.8937
  382ACTN    H1 3818   6.898   1.616   5.576  0.3682  0.6423  3.1825
  382ACTN    H2 3819   6.791   1.487   5.505  0.4355  0.0997  1.2570
  382ACTN    H3 3820   6.780   1.531   5.671 -0.8327 -0.4102  0.3292
  383ACTN    H6 3821   2.381   0.815   2.528  0.4613  2.4669  1.2385
  383ACTN    C3 3822   2.280   0.801   2.567  0.4460  0.0313  0.4168
  383ACTN    H4 3823   2.258   0.695   2.576 -1.1545  0.3304  0.1869
  383ACTN    H5 3824   2.281   0.847   2.666 -1.6679  2.0634 -0.4569
  383ACTN    C2 3825   2.177   0.872   2.479 -0.5771  0.0516 -0.4922
  383ACTN    O1 3826   2.092   0.947   2.523  0.0632  0.1872  0.2793
  383ACTN    C1 3827   2.205   0.862   2.329 -0.1525 -0.3472  0.7682
  383ACTN    H1 3828   2.290   0.804   2.294 -0.6382  0.1389 -1.3103
  383ACTN    H2 3829   2.211   0.963   2.287  1.7997 -1.7140 -2.3837
  383ACTN    H3 3830   2.118   0.818   2.280 -0.3358  2.8843 -2.0664
  384ACTN    H6 3831   6.006   3.105   6.298  0.1669 -0.8397 -1.0436
  384ACTN    C3 3832   5.923   3.034   6.292 -0.0404 -0.7179  0.1828
  384ACTN    H4 3833   5.842   3.052   6.363  0.0148 -2.9140  0.8214
  384ACTN    H5 3834   5.881   3.048   6.192 -0.8003 -2.8417  0.1795
  384ACTN    C2 3835   5.969   2.894   6.310 -0.6211 -0.5326  0.2877
  384ACTN    O1 3836   5.998   2.835   6.209  0.6060  0.1612 -0.1561
  384ACTN    C1 3837   5.991   2.832   6.441  0.2060 -0.3363 -0.4748
  384ACTN    H1 3838   6.009   2.725   6.455  1.0853 -0.0060  1.0399
  384ACTN    H2 3839   5.901   2.844   6.501 -1.5490 -2.0217 -2.6619
  384ACTN    H3 3840   6.069   2.880   6.500  0.6912 -2.3465  0.5799
  385ACTN    H6 3841   1.382   2.598   3.567 -2.4038 -2.9716 -3.0412
  385ACTN    C3 3842   1.370   2.529   3.652 -0.2908  0.0571 -0.1544
  385ACTN    H4 3843   1.323   2.579   3.736  2.2073 -0.7160  1.7293
  385ACTN    H5 3844   1.303   2.455   3.608 -0.4565  0.1604 -0.0780
  385ACTN    C2 3845   1.493   2.459   3.691 -0.1124  0.5511  0.0891
  385ACTN    O1 3846   1.511   2.399   3.793 -0.3445  0.1386 -1.1025
  385ACTN    C1 3847   1.613   2.481   3.605 -0.0907 -0.3777  0.4751
  385ACTN    H1 3848   1.590   2.474   3.499  1.5179  0.7873  0.0228
  385ACTN    H2 3849   1.688   2.403   3.620  1.9774  1.1793 -1.4535
  385ACTN    H3 3850   1.658   2.576   3.633 -0.8490 -0.1674  0.9866
  386ACTN    H6 3851   6.383   1.522   3.995  0.5445  1.2485  2.5419
  386ACTN    C3 3852   6.344   1.612   3.948  1.0744  0.0178 -0.4186
  386ACTN    H4 3853   6.300   1.584   3.853 -3.3390 -0.0336  1.5366
  386ACTN    H5 3854   6.273   1.644   4.024  1.1644 -1.1635  0.1760
  386ACTN    C2 3855   6.459   1.710   3.938 -0.0880  0.2717  0.3474
  386ACTN    O1 3856   6.514   1.725   3.834  0.4418  0.0387 -0.2095
  386ACTN    C1 3857   6.519   1.764   4.065 -0.2751 -0.5016  0.5501
  386ACTN    H1 3858   6.445   1.816   4.125 -0.9804 -0.6311 -0.2049
  386ACTN    H2 3859   6.596   1.837   4.038 -0.7060 -0.2279  0.0631
  386ACTN    H3 3860   6.565   1.694   4.136 -0.7586  1.5085  2.9078
  387ACTN    H6 3861   0.061   1.617   4.855  1.0970 -0.2920  0.2814
  387ACTN    C3 3862   0.078   1.678   4.943  0.4911 -0.0042  0.2066
  387ACTN    H4 3863   0.186   1.695   4.949  0.6562 -0.3593 -1.5273
  387ACTN    H5 3864   0.028   1.775   4.937  0.3679  0.0356  1.5371
  387ACTN    C2 3865   0.022   1.615   5.068 -0.1256  0.0561  0.4000
  387ACTN    O1 3866   0.035   1.493   5.080  0.4461 -0.0017  0.5445
  387ACTN    C1 3867  -0.065   1.705   5.153 -0.3199  0.2378  0.3840
  387ACTN    H1 3868  -0.057   1.803   5.107 -0.9009 -0.2374 -0.7584
  387ACTN    H2 3869  -0.028   1.713   5.255 -1.2241 -0.4188  0.7653
  387ACTN    H3 3870  -0.169   1.671   5.154  0.4397 -2.2401  4.0903
  388ACTN    H6 3871   0.356   6.836   1.890  2.1834  1.6417  0.4796
  388ACTN    C3 3872   0.301   6.900   1.960 -0.3962  0.0284  0.0145
  388ACTN    H4 3873   0.247   6.833   2.026  1.9263 -0.6737  1.2602
  388ACTN    H5 3874   0.379   6.942   2.024  0.9542  1.0798 -2.2365
  388ACTN    C2 3875   0.223   7.018   1.911  0.0766  0.3660 -0.3810
  388ACTN    O1 3876   0.152   7.074   1.994 -0.0234  0.6729  0.2966
  388ACTN    C1 3877   0.206   7.029   1.766 -0.3380  0.0909 -0.6866
  388ACTN    H1 3878   0.296   6.989   1.719  0.1271  0.2385  0.0564
  388ACTN    H2 3879   0.192   7.134   1.744 -2.9585 -0.0532  0.0695
  388ACTN    H3 3880   0.119   6.972   1.734 -0.9754 -0.4141  1.7831
  389ACTN    H6 3881   2.794   6.461   4.680 -0.4395  2.7972  0.7473
  389ACTN    C3 3882   2.734   6.421   4.762  0.2390  0.2754  0.0481
  389ACTN    H4 3883   2.630   6.441   4.735 -0.0760 -0.4977  0.6587
  389ACTN    H5 3884   2.757   6.315   4.772  1.7717  0.1354 -4.0698
  389ACTN    C2 3885   2.780   6.488   4.892 -0.2594  0.1674  0.3940
  389ACTN    O1 3886   2.825   6.421   4.989 -0.1380  0.7896 -0.4811
  389ACTN    C1 3887   2.798   6.635   4.890  0.1124 -0.4944 -0.6435
  389ACTN    H1 3888   2.779   6.667   4.992  1.4923  1.6520 -1.0253
  389ACTN    H2 3889   2.733   6.680   4.815 -2.4059  0.2432  1.9179
  389ACTN    H3 3890   2.897   6.663   4.854 -0.3947  0.8396 -1.0239
  390ACTN    H6 3891   7.250   6.986   3.601 -1.1253 -3.0395  0.1513
  390ACTN    C3 3892   7.177   7.038   3.539  0.7432 -0.0687  0.3502
  390ACTN    H4 3893   7.125   7.098   3.614  0.2820  0.1787 -0.1671
  390ACTN    H5 3894   7.224   7.102   3.465  0.5068 -1.5377 -1.0890
  390ACTN    C2 3895   7.075   6.952   3.469 -0.1089 -0.7593 -0.4783
  390ACTN    O1 3896   6.980   7.003   3.410 -0.1637  0.3091  0.3379
  390ACTN    C1 3897   7.089   6.798   3.471 -0.3382  0.0332  0.6862
  390ACTN    H1 3898   7.193   6.779   3.498 -0.3887  1.4062  1.9128
  390ACTN    H2 3899   7.070   6.757   3.372  0.1116  0.0228  0.6012
  390ACTN    H3 3900   7.023   6.758   3.548  0.1725  0.2164  1.2173
  391ACTN    H6 3901   1.230   4.799   2.608  1.4504 -0.1632 -1.4321
  391ACTN    C3 3902   1.312   4.783   2.677  0.3698 -0.2189 -0.1317
  391ACTN    H4 3903   1.401   4.758   2.619  0.7556  0.7524  0.0379
  391ACTN    H5 3904   1.338   4.869   2.739 -0.9471 -0.1535  0.3352
  391ACTN    C2 3905   1.292   4.665   2.774  0.3210  0.1270 -0.1784
  391ACTN    O1 3906   1.247   4.558   2.733  0.0468  0.0358 -0.4875
  391ACTN    C1 3907   1.298   4.689   2.917 -0.3423  0.1346 -0.6636
  391ACTN    H1 3908   1.225   4.767   2.937 -1.4799 -1.2601  0.7620
  391ACTN    H2 3909   1.400   4.712   2.947 -0.7887  2.9796 -1.2026
  391ACTN    H3 3910   1.260   4.603   2.971  1.2634  1.1125  2.0997
  392ACTN    H6 3911   3.810   3.465   7.105  1.3279 -0.8607  0.2006
  392ACTN    C3 3912   3.733   3.389   7.122  0.5335 -0.1643 -0.2628
  392ACTN    H4 3913   3.731   3.310   7.047  2.4844 -0.5805  0.1039
  392ACTN    H5 3914   3.758   3.330   7.210  0.8988 -0.5731 -0.6408
  392ACTN    C2 3915   3.593   3.441   7.141 -0.5506 -0.2075  0.6446
  392ACTN    O1 3916   3.499   3.372   7.167 -0.2793 -0.2577 -0.1863
  392ACTN    C1 3917   3.571   3.585   7.110 -0.1736 -0.3204  0.3702
  392ACTN    H1 3918   3.660   3.643   7.133  0.4704 -1.1273 -0.0917
  392ACTN    H2 3919   3.498   3.624   7.182  1.3991 -1.9788  2.9124
  392ACTN    H3 3920   3.544   3.604   7.006  0.8174 -0.4599  0.0840
  393ACTN    H6 3921   6.362   0.122   2.890 -0.9640  0.4232  1.3005
  393ACTN    C3 3922   6.279   0.137   2.821 -0.0459 -0.2607  0.0282
  393ACTN    H4 3923   6.192   0.131   2.887 -0.8381 -2.0924 -1.1270
  393ACTN    H5 3924   6.298   0.237   2.782  3.7922 -1.5736 -1.6546
  393ACTN    C2 3925   6.272   0.040   2.709 -0.2441  0.3125 -0.1025
  393ACTN    O1 3926   6.360  -0.039   2.674 -0.1992 -0.8606 -0.0271
  393ACTN    C1 3927   6.148   0.069   2.626  0.1734 -0.4533  0.3965
  393ACTN    H1 3928   6.164   0.147   2.552 -0.9464 -1.2323 -0.6795
  393ACTN    H2 3929   6.059   0.091   2.684 -0.2377 -1.4713  0.1643
  393ACTN    H3 3930   6.126  -0.023   2.572 -1.4199  0.3171 -0.2902
  394ACTN    H6 3931   3.054   4.841   6.800  1.0742  0.0604 -2.1414
  394ACTN    C3 3932   2.968   4.782   6.767  1.2264 -0.8847 -0.8965
  394ACTN    H4 3933   2.882   4.846   6.748  0.6388 -1.3125  0.2733
  394ACTN    H5 3934   2.925   4.721   6.846 -1.8951  0.4386 -1.4887
  394ACTN    C2 3935   2.990   4.685   6.659  0.3568 -0.4989 -0.2911
  394ACTN    O1 3936   2.963   4.566   6.670 -0.1921  0.1810 -0.5186
  394ACTN    C1 3937   3.029   4.731   6.524 -0.1006  0.2172 -0.6739
  394ACTN    H1 3938   3.070   4.832   6.517  0.4220  0.5589  4.7734
  394ACTN    H2 3939   2.942   4.739   6.458 -1.2960 -1.9519  0.5700
  394ACTN    H3 3940   3.101   4.663   6.481 -0.5240 -0.5229 -0.2306
  395ACTN    H6 3941   4.414   6.400   7.189  0.2754  0.2606  0.7963
  395ACTN    C3 3942   4.380   6.296   7.195 -0.0166  0.3329  0.3525
  395ACTN    H4 3943   4.438   6.253   7.276 -0.2099  0.8600  0.7714
  395ACTN    H5 3944   4.281   6.314   7.237  0.4747  0.2493  1.5468
  395ACTN    C2 3945   4.371   6.216   7.069  0.4529 -0.4289 -0.2026
  395ACTN    O1 3946   4.361   6.097   7.085  0.0897  0.4905 -0.2139
  395ACTN    C1 3947   4.377   6.284   6.933 -0.1880  0.0953  0.0297
  395ACTN    H1 3948   4.392   6.211   6.853  0.5715 -0.0777  0.3216
  395ACTN    H2 3949   4.459   6.354   6.920 -1.7917  1.6835 -1.9304
  395ACTN    H3 3950   4.289   6.341   6.903 -0.0792  0.7165  0.8897
  396ACTN    H6 3951   7.119   6.406   0.736  1.3466 -1.0534 -0.7030
  396ACTN    C3 3952   7.165   6.493   0.688 -0.3979  0.2123 -0.1210
  396ACTN    H4 3953   7.143   6.495   0.582 -0.9883  0.6104  0.0057
  396ACTN    H5 3954   7.113   6.578   0.731  0.7901  1.5315 -1.2749
  396ACTN    C2 3955   7.311   6.502   0.726  1.4724 -0.2090  0.4094
  396ACTN    O1 3956   7.394   6.476   0.638  0.0857  0.0026  0.3605
  396ACTN    C1 3957   7.352   6.491   0.870 -0.0013 -0.1961  0.0541
  396ACTN    H1 3958   7.268   6.446   0.923  1.7915 -0.5020  2.6968
  396ACTN    H2 3959   7.367   6.592   0.908 -1.2358  0.1977 -0.4490
  396ACTN    H3 3960   7.439   6.427   0.881  2.3464  3.1648  1.8212
  397ACTN    H6 3961   2.312   6.261   6.735 -1.1117 -0.6106  1.3619
  397ACTN    C3 3962   2.328   6.154   6.729 -0.1130 -0.4085  0.2117
  397ACTN    H4 3963   2.432   6.131   6.705 -0.5047 -0.2819 -1.7152
  397ACTN    H5 3964   2.296   6.094   6.814 -1.7155  0.8679  0.5252
  397ACTN    C2 3965   2.251   6.094   6.607 -0.2420 -0.2973 -0.3293
  397ACTN    O1 3966   2.177   6.164   6.539 -0.3037  0.2627  0.3995
  397ACTN    C1 3967   2.280   5.956   6.566 -0.0841  0.0381  0.2495
  397ACTN    H1 3968   2.192   5.892   6.566  0.3807 -0.6266 -0.8219
  397ACTN    H2 3969   2.352   5.901   6.627  0.6358  2.3637  1.5812
  397ACTN    H3 3970   2.319   5.966   6.464  1.5895  2.3129  1.0666
  398ACTN    H6 3971   2.906   4.896   2.347 -0.3187 -0.9558 -2.0958
  398ACTN    C3 3972   2.909   4.792   2.380 -0.1878 -0.3427 -0.0734
  398ACTN    H4 3973   3.008   4.748   2.373 -1.5472 -3.7786  1.4800
  398ACTN    H5 3974   2.867   4.788   2.480  0.2742 -0.3339  0.1221
  398ACTN    C2 3975   2.817   4.711   2.287  0.2168 -0.3092 -0.1490
  398ACTN    O1 3976   2.701   4.743   2.263 -0.0678  0.1262  0.8833
  398ACTN    C1 3977   2.878   4.597   2.218  0.6895  0.1240  0.8415
  398ACTN    H1 3978   2.807   4.559   2.144  1.0232 -0.7298  0.9556
  398ACTN    H2 3979   2.892   4.516   2.289 -2.9388 -1.1023  0.2924
  398ACTN    H3 3980   2.968   4.628   2.165 -0.1488  1.8899  0.4002
  399ACTN    H6 3981   7.012   0.335   1.535  3.3239 -1.2926  0.9563
  399ACTN    C3 3982   6.984   0.333   1.640  0.1067  0.0331  0.1904
  399ACTN    H4 3983   7.032   0.405   1.706  0.1961  1.4688 -1.3987
  399ACTN    H5 3984   6.877   0.349   1.650 -0.2009 -0.3243 -2.1789
  399ACTN    C2 3985   7.013   0.200   1.691 -0.3863 -0.6197 -0.3911
  399ACTN    O1 3986   6.989   0.098   1.621  0.4049 -0.3784  0.2569
  399ACTN    C1 3987   7.065   0.174   1.830  0.4674 -0.5090  0.1660
  399ACTN    H1 3988   7.120   0.080   1.831 -1.1811 -1.5095 -0.9700
  399ACTN    H2 3989   6.977   0.176   1.894 -0.6526 -1.2383 -1.3394
  399ACTN    H3 3990   7.121   0.256   1.875 -0.1037 -1.2185  2.2280
  400ACTN    H6 3991   0.653   1.210   4.755 -0.4194 -2.0010  2.6658
  400ACTN    C3 3992   0.546   1.219   4.734  0.2997 -0.2891 -0.4411
  400ACTN    H4 3993   0.538   1.225   4.625 -1.7615 -2.6491 -0.4376
  400ACTN    H5 3994   0.492   1.129   4.762 -1.0086  0.2433 -1.2192
  400ACTN    C2 3995   0.486   1.343   4.801 -1.0812 -0.4375 -0.4505
  400ACTN    O1 3996   0.388   1.330   4.875 -0.3461  0.1053 -0.3399
  400ACTN    C1 3997   0.516   1.483   4.750  0.1664 -0.3525  0.6035
  400ACTN    H1 3998   0.556   1.540   4.834  2.1515 -0.4640 -0.2520
  400ACTN    H2 3999   0.430   1.539   4.714  2.3643  1.7869 -1.5129
  400ACTN    H3 4000   0.592   1.485   4.672 -2.5843 -0.1047 -2.1860
  401ACTN    H6 4001   3.164   1.899   4.008  1.8764  1.7364  2.5832
  401ACTN    C3 4002   3.241   1.823   4.012 -0.0965 -0.5251 -0.5612
  401ACTN    H4 4003   3.317   1.845   4.087  1.2725  0.7589 -2.2901
  401ACTN    H5 4004   3.207   1.721   4.031 -0.9750 -0.2819 -0.8083
  401ACTN    C2 4005   3.308   1.819   3.875  0.2176 -0.0819  0.2991
  401ACTN    O1 4006   3.246   1.771   3.782  0.0960 -0.4452  0.3707
  401ACTN    C1 4007   3.453   1.860   3.859  0.9147  0.2094 -0.2201
  401ACTN    H1 4008   3.470   1.932   3.779  0.3403 -0.5149 -1.0075
  401ACTN    H2 4009   3.511   1.770   3.839  2.7482  1.8115 -2.4251
  401ACTN    H3 4010   3.492   1.903   3.951 -3.0579 -0.2895  1.7849
  402ACTN    H6 4011   4.298   3.819   1.139 -0.2559 -1.2629 -1.1941
  402ACTN    C3 4012   4.221   3.890   1.107 -0.0386 -0.3333  0.3397
  402ACTN    H4 4013   4.222   3.881   0.999 -1.6832 -1.0361  0.3790
  402ACTN    H5 4014   4.122   3.858   1.137 -0.6074  0.5042 -0.6312
  402ACTN    C2 4015   4.247   4.028   1.161 -0.9801  0.7030  0.0120
  402ACTN    O1 4016   4.344   4.097   1.146 -0.5890  0.3735 -0.4654
  402ACTN    C1 4017   4.136   4.084   1.235 -0.3221  0.0646 -0.4965
  402ACTN    H1 4018   4.145   4.075   1.343 -1.9324 -1.9589 -0.5013
  402ACTN    H2 4019   4.043   4.032   1.215 -0.9480  0.0877  2.2058
  402ACTN    H3 4020   4.126   4.189   1.207 -2.0268 -0.3639 -1.5548
  403ACTN    H6 4021   2.700   0.537   3.985  0.9328  0.8022 -0.7280
  403ACTN    C3 4022   2.776   0.565   4.058 -0.1908 -0.2234  0.8679
  403ACTN    H4 4023   2.871   0.520   4.029  0.1025  0.9605 -0.0467
  403ACTN    H5 4024   2.780   0.674   4.061 -2.9346 -0.0034 -0.8576
  403ACTN    C2 4025   2.736   0.523   4.193 -0.4392 -0.5665  0.6112
  403ACTN    O1 4026   2.694   0.593   4.283  0.0218  0.0816  0.0578
  403ACTN    C1 4027   2.769   0.375   4.225  0.0054 -0.3121 -0.0680
  403ACTN    H1 4028   2.856   0.379   4.292  0.5373  0.0720 -0.7795
  403ACTN    H2 4029   2.814   0.324   4.140  0.6816 -1.2642  0.8329
  403ACTN    H3 4030   2.684   0.316   4.262 -1.9674  1.4353 -1.7446
  404ACTN    H6 4031   0.773   0.948   3.845  3.2007  0.9439  1.1593
  404ACTN    C3 4032   0.736   1.048   3.825 -0.0232 -0.3908  0.0318
  404ACTN    H4 4033   0.684   1.103   3.903 -1.4315  0.3040 -1.3501
  404ACTN    H5 4034   0.820   1.110   3.791 -0.8908  0.7654 -0.0191
  404ACTN    C2 4035   0.650   1.046   3.705 -0.4551 -0.8024 -0.6604
  404ACTN    O1 4036   0.700   1.032   3.597  0.6216 -0.4515 -0.4480
  404ACTN    C1 4037   0.509   1.002   3.729 -0.0061 -0.6411 -0.4939
  404ACTN    H1 4038   0.497   0.895   3.712 -0.2621 -0.8172  0.7008
  404ACTN    H2 4039   0.445   1.052   3.656 -1.1845 -1.1632  0.1640
  404ACTN    H3 4040   0.473   1.029   3.829  1.9952  3.6561 -0.8242
  405ACTN    H6 4041   4.642   6.325   2.360 -1.9576  1.1809  0.8897
  405ACTN    C3 4042   4.599   6.353   2.264 -0.0364  0.7292 -0.1321
  405ACTN    H4 4043   4.642   6.446   2.230  0.3860 -0.2042 -2.1822
  405ACTN    H5 4044   4.613   6.276   2.189 -0.4053  0.4781  0.0508
  405ACTN    C2 4045   4.445   6.365   2.290  0.2610 -0.3284  0.2726
  405ACTN    O1 4046   4.409   6.426   2.390 -0.0870 -0.2006  0.1446
  405ACTN    C1 4047   4.351   6.278   2.207  0.4834 -0.0319  0.0179
  405ACTN    H1 4048   4.303   6.345   2.136 -1.3226 -0.5422  0.7170
  405ACTN    H2 4049   4.266   6.236   2.262  0.1415  0.0332 -0.4537
  405ACTN    H3 4050   4.415   6.207   2.155  2.0538  2.2254 -1.1722
  406ACTN    H6 4051   1.538   6.777   2.109 -0.9642 -2.9511 -0.7193
  406ACTN    C3 4052   1.443   6.829   2.103  0.3038 -0.5395 -0.3606
  406ACTN    H4 4053   1.384   6.784   2.024  2.9765  0.4171 -2.9721
  406ACTN    H5 4054   1.389   6.804   2.194  0.8103 -2.9498 -0.7067
  406ACTN    C2 4055   1.454   6.975   2.076  0.3516  0.0621  0.0422
  406ACTN    O1 4056   1.526   7.019   1.985 -0.1203 -0.0985 -0.4118
  406ACTN    C1 4057   1.364   7.068   2.151 -0.2556  0.3097  0.3969
  406ACTN    H1 4058   1.416   7.090   2.244  0.9898  1.7101 -0.6280
  406ACTN    H2 4059   1.265   7.028   2.174 -0.2129 -1.0641 -1.6742
  406ACTN    H3 4060   1.356   7.157   2.089  2.8351 -0.2927 -0.9451
  407ACTN    H6 4061   6.896   0.947   4.802  0.7413 -0.3138  1.2951
  407ACTN    C3 4062   6.800   0.909   4.838  0.1111 -0.7703 -0.8024
  407ACTN    H4 4063   6.761   0.847   4.758  0.9576 -0.6208 -1.3462
  407ACTN    H5 4064   6.822   0.852   4.928 -0.6950  1.0169  0.5538
  407ACTN    C2 4065   6.719   1.022   4.873 -0.6440 -0.1667  0.3445
  407ACTN    O1 4066   6.614   1.002   4.919  0.4061  0.2846  0.2149
  407ACTN    C1 4067   6.764   1.161   4.828 -0.9596 -0.1519 -0.0035
  407ACTN    H1 4068   6.867   1.160   4.793 -1.1394 -0.2813 -0.5382
  407ACTN    H2 4069   6.755   1.239   4.904  1.1672  0.4592 -0.3436
  407ACTN    H3 4070   6.702   1.196   4.746  0.6923  0.6098 -0.9547
  408ACTN    H6 4071   6.069   4.725   2.342  0.6836  0.7769  0.7108
  408ACTN    C3 4072   6.129   4.634   2.342 -0.3814  0.0662 -0.4505
  408ACTN    H4 4073   6.059   4.551   2.348 -2.6593  1.9393 -0.4973
  408ACTN    H5 4074   6.168   4.621   2.241 -1.2419  0.0924 -0.7921
  408ACTN    C2 4075   6.231   4.623   2.449 -0.2087 -0.9079  0.1599
  408ACTN    O1 4076   6.217   4.712   2.530  0.1769  0.0065 -0.3481
  408ACTN    C1 4077   6.347   4.526   2.442  0.0278 -0.4728 -0.0470
  408ACTN    H1 4078   6.431   4.585   2.406 -0.8199  0.9679  0.2950
  408ACTN    H2 4079   6.333   4.446   2.369 -0.5921 -0.1370 -0.3011
  408ACTN    H3 4080   6.376   4.489   2.541  1.3623  0.9802  0.1164
  409ACTN    H6 4081   5.269   3.245   1.201 -0.5911 -0.6434  1.0567
  409ACTN    C3 4082   5.176   3.188   1.193 -0.6297 -0.4627  0.1714
  409ACTN    H4 4083   5.196   3.084   1.221 -0.6426 -0.7804 -0.9446
  409ACTN    H5 4084   5.103   3.236   1.258 -0.7315  0.5365 -0.6773
  409ACTN    C2 4085   5.140   3.190   1.048  0.8603 -0.1372  0.3876
  409ACTN    O1 4086   5.040   3.256   1.021 -0.5425  0.1946 -0.0488
  409ACTN    C1 4087   5.236   3.142   0.945 -0.0688  0.0130 -0.2605
  409ACTN    H1 4088   5.310   3.220   0.930 -0.5652  0.4387 -0.5249
  409ACTN    H2 4089   5.182   3.134   0.850 -3.8172  0.7149  1.6822
  409ACTN    H3 4090   5.285   3.049   0.973 -0.8307 -0.9835 -2.1246
  410ACTN    H6 4091   0.540   1.318   7.302 -0.3234 -0.1610 -0.7058
  410ACTN    C3 4092   0.435   1.339   7.320 -0.2284 -0.3858  0.1577
  410ACTN    H4 4093   0.381   1.303   7.232  2.8338  0.0896 -2.0065
  410ACTN    H5 4094   0.405   1.284   7.409  1.8880  0.6432  1.5467
  410ACTN    C2 4095   0.409   1.485   7.339 -0.4947 -0.1668 -0.1485
  410ACTN    O1 4096   0.488   1.563   7.285 -0.7756 -0.0456 -0.4986
  410ACTN    C1 4097   0.299   1.545   7.423 -0.0636  0.7441  0.8157
  410ACTN    H1 4098   0.337   1.605   7.506 -0.4268  1.8257  0.2062
  410ACTN    H2 4099   0.223   1.474   7.458 -0.0182  0.2537 -0.0720
  410ACTN    H3 4100   0.239   1.617   7.369  0.0253  1.6943  1.9762
  411ACTN    H6 4101   5.412   1.694   2.066 -0.5024 -0.9193 -1.8656
  411ACTN    C3 4102   5.499   1.636   2.033  0.5863 -0.1935 -0.3505
  411ACTN    H4 4103   5.592   1.692   2.041 -0.7715  2.4128 -1.8629
  411ACTN    H5 4104   5.507   1.546   2.093 -2.8785  0.7167  1.6655
  411ACTN    C2 4105   5.455   1.597   1.894  0.2054  0.4979 -0.2477
  411ACTN    O1 4106   5.422   1.485   1.868 -0.0732  0.3131  0.2912
  411ACTN    C1 4107   5.445   1.711   1.789  0.4090  0.1706  0.3392
  411ACTN    H1 4108   5.457   1.806   1.840 -0.5277 -0.5256  1.9187
  411ACTN    H2 4109   5.350   1.707   1.735  0.5562 -0.9119  0.1435
  411ACTN    H3 4110   5.520   1.707   1.710 -0.5109  2.8393 -0.7306
  412ACTN    H6 4111   4.820   1.038   2.445 -2.2026  3.3036  0.4610
  412ACTN    C3 4112   4.731   0.992   2.402  0.1099 -1.2391  0.2777
  412ACTN    H4 4113   4.700   1.058   2.322 -0.8300 -1.3387  0.5479
  412ACTN    H5 4114   4.751   0.897   2.351  0.8584 -0.7093 -0.4208
  412ACTN    C2 4115   4.619   0.971   2.499  0.0078  0.2753  0.5269
  412ACTN    O1 4116   4.508   0.942   2.458  0.3706 -0.1239 -0.1170
  412ACTN    C1 4117   4.637   0.980   2.644 -0.5651  0.0689  0.0895
  412ACTN    H1 4118   4.626   0.888   2.702 -0.6898  0.9030  1.3934
  412ACTN    H2 4119   4.577   1.060   2.686  1.1915  0.1683  2.5347
  412ACTN    H3 4120   4.739   1.013   2.664 -1.1290  3.6416 -2.5899
  413ACTN    H6 4121   5.008   6.498   5.337  0.0312  1.1984 -0.1487
  413ACTN    C3 4122   5.114   6.494   5.313  0.1922 -0.1458  0.7249
  413ACTN    H4 4123   5.165   6.509   5.408  2.0716 -1.5758 -0.0145
  413ACTN    H5 4124   5.130   6.393   5.274  1.2634  0.6867 -1.0688
  413ACTN    C2 4125   5.165   6.588   5.208  0.3308  0.6974 -0.3304
  413ACTN    O1 4126   5.248   6.673   5.229  0.3757 -0.7125 -0.7764
  413ACTN    C1 4127   5.079   6.601   5.083 -0.1356  0.0185  0.8419
  413ACTN    H1 4128   5.044   6.704   5.081  1.4254  0.5610 -0.4090
  413ACTN    H2 4129   4.998   6.528   5.080  0.7312 -0.9065 -2.5983
  413ACTN    H3 4130   5.145   6.594   4.996 -3.0815  1.7780 -1.6405
  414ACTN    H6 4131   6.993   0.770   3.386 -1.2454  0.2837 -1.2856
  414ACTN    C3 4132   6.967   0.665   3.377 -0.6575 -0.0116  0.2754
  414ACTN    H4 4133   7.036   0.614   3.444 -0.4068  1.3831  1.0859
  414ACTN    H5 4134   6.862   0.661   3.407 -1.1521 -2.9092 -1.6100
  414ACTN    C2 4135   6.983   0.639   3.236 -0.0436  0.0236 -0.3978
  414ACTN    O1 4136   6.905   0.696   3.161  0.1131 -0.2362  0.2207
  414ACTN    C1 4137   7.078   0.532   3.191  0.3274  0.0276  0.2026
  414ACTN    H1 4138   7.182   0.565   3.190  0.3801 -0.1285  0.4482
  414ACTN    H2 4139   7.057   0.498   3.090 -2.9162 -0.5903  1.0141
  414ACTN    H3 4140   7.077   0.441   3.251 -0.2023 -0.3240 -0.3318
  415ACTN    H6 4141   4.182   1.753   6.519 -0.0102  1.4736 -0.2378
  415ACTN    C3 4142   4.077   1.735   6.500  0.1125  0.8337 -0.3079
  415ACTN    H4 4143   4.024   1.694   6.586 -2.2437  1.3192 -1.4827
  415ACTN    H5 4144   4.025   1.828   6.478  1.5394  1.6281 -0.3821
  415ACTN    C2 4145   4.052   1.651   6.377 -0.1016  0.0247 -0.1459
  415ACTN    O1 4146   3.938   1.615   6.347  0.4315 -0.6088 -0.7644
  415ACTN    C1 4147   4.173   1.623   6.297 -0.5614 -0.0417 -0.0324
  415ACTN    H1 4148   4.138   1.563   6.213 -3.0370 -0.6552  1.3821
  415ACTN    H2 4149   4.254   1.569   6.346 -0.8662  0.0684  0.6036
  415ACTN    H3 4150   4.202   1.722   6.261  0.9526 -1.0389 -1.6131
  416ACTN    H6 4151   0.430   5.671   2.278 -0.7658  0.5720 -1.7909
  416ACTN    C3 4152   0.379   5.720   2.361  0.4077 -0.4906 -0.4077
  416ACTN    H4 4153   0.322   5.652   2.424 -1.5798  1.7897  0.3530
  416ACTN    H5 4154   0.458   5.771   2.416 -1.3724  0.2318  1.5451
  416ACTN    C2 4155   0.283   5.820   2.307 -0.0698  0.4549  0.1577
  416ACTN    O1 4156   0.266   5.830   2.184 -0.1985  0.0643 -0.0376
  416ACTN    C1 4157   0.219   5.920   2.403 -0.0717 -0.6082 -0.0960
  416ACTN    H1 4158   0.233   6.017   2.354  2.2549 -1.7049 -1.6750
  416ACTN    H2 4159   0.267   5.937   2.499 -0.6054  1.3626 -0.1590
  416ACTN    H3 4160   0.114   5.903   2.428  0.1369 -0.1892  1.1097
  417ACTN    H6 4161   1.420   3.173   6.779  0.9536  1.2206 -1.5928
  417ACTN    C3 4162   1.515   3.210   6.818  0.4999  0.5162  0.2171
  417ACTN    H4 4163   1.495   3.232   6.923  1.0549 -3.1053  1.1207
  417ACTN    H5 4164   1.584   3.126   6.811  0.6860  0.6529  0.3902
  417ACTN    C2 4165   1.566   3.325   6.738  0.3146  0.0958  0.3779
  417ACTN    O1 4166   1.679   3.367   6.757  0.7921  0.3807  0.0977
  417ACTN    C1 4167   1.477   3.396   6.635 -0.0132 -0.1478 -0.4764
  417ACTN    H1 4168   1.384   3.342   6.618  0.4331 -1.0994  0.0105
  417ACTN    H2 4169   1.531   3.408   6.541 -0.8795  1.2977 -0.8075
  417ACTN    H3 4170   1.452   3.497   6.666 -1.9293 -0.8558  0.3376
  418ACTN    H6 4171   6.414   2.550   1.951 -0.1204 -0.7002  0.5419
  418ACTN    C3 4172   6.417   2.450   1.905 -1.0323 -0.6067  0.2797
  418ACTN    H4 4173   6.357   2.453   1.814  0.2982  2.2786 -0.5723
  418ACTN    H5 4174   6.518   2.430   1.870 -1.1524 -0.7601  0.0248
  418ACTN    C2 4175   6.368   2.347   2.007 -0.3577 -0.1999  0.0814
  418ACTN    O1 4176   6.446   2.317   2.102  0.0521 -0.3637  0.2006
  418ACTN    C1 4177   6.242   2.274   1.984  0.4957  0.9536  0.2440
  418ACTN    H1 4178   6.249   2.226   1.886 -0.7328 -0.4905  0.8358
  418ACTN    H2 4179   6.155   2.340   1.980  1.1982  1.7953 -1.6322
  418ACTN    H3 4180   6.218   2.200   2.060  1.3163  0.3791 -0.0509
  419ACTN    H6 4181   3.725   5.337   1.475  0.8389  0.3838 -1.9316
  419ACTN    C3 4182   3.831   5.350   1.497  0.5401 -0.1188 -0.1283
  419ACTN    H4 4183   3.846   5.450   1.537 -0.3042  0.3992 -1.0934
  419ACTN    H5 4184   3.884   5.278   1.560 -0.1820  0.8953  1.6394
  419ACTN    C2 4185   3.896   5.340   1.359  0.2881  0.0152  0.1865
  419ACTN    O1 4186   3.853   5.411   1.272 -0.4668  0.5242  0.5072
  419ACTN    C1 4187   3.999   5.235   1.325  0.1506 -0.4136 -0.5194
  419ACTN    H1 4188   3.998   5.211   1.219 -0.6921 -0.1248 -0.5813
  419ACTN    H2 4189   3.988   5.145   1.385 -0.9813  0.4758  0.6583
  419ACTN    H3 4190   4.097   5.273   1.353  0.8282 -0.8650 -2.2615
  420ACTN    H6 4191   1.115   6.752   1.288  0.3042 -1.3814 -2.5269
  420ACTN    C3 4192   1.214   6.770   1.330 -0.6193 -0.8791 -0.4834
  420ACTN    H4 4193   1.259   6.852   1.273 -1.3254  0.8809  1.4283
  420ACTN    H5 4194   1.206   6.813   1.430 -0.4211 -2.1007  0.0656
  420ACTN    C2 4195   1.301   6.651   1.332 -0.9998 -0.3317  0.2763
  420ACTN    O1 4196   1.381   6.637   1.426 -0.0568 -0.1527  0.1015
  420ACTN    C1 4197   1.332   6.566   1.213 -0.3213  0.0592 -0.2014
  420ACTN    H1 4198   1.247   6.517   1.165 -0.0802 -0.4021 -0.1581
  420ACTN    H2 4199   1.390   6.481   1.249  2.0595  2.6240  2.2548
  420ACTN    H3 4200   1.391   6.617   1.137 -1.2708 -0.8447 -1.5632
  421ACTN    H6 4201   4.407   3.372   4.170  0.5084  1.7521 -0.8689
  421ACTN    C3 4202   4.405   3.292   4.095  0.4079  0.6709  0.2755
  421ACTN    H4 4203   4.470   3.210   4.126  0.5777 -0.4247 -2.8595
  421ACTN    H5 4204   4.301   3.262   4.102  1.0037 -1.5913 -0.1630
  421ACTN    C2 4205   4.451   3.346   3.963 -0.2512  0.3642  0.2488
  421ACTN    O1 4206   4.514   3.285   3.881 -0.2677  0.4830  0.1378
  421ACTN    C1 4207   4.402   3.481   3.927  0.6454  0.5863 -0.2225
  421ACTN    H1 4208   4.482   3.553   3.910  0.9270  0.1058 -0.9511
  421ACTN    H2 4209   4.335   3.513   4.006  0.0525 -2.9156  0.7631
  421ACTN    H3 4210   4.353   3.470   3.830 -1.6659 -0.0832  0.9697
  422ACTN    H6 4211   1.548   5.699   5.662 -0.5995 -0.1227  2.1783
  422ACTN    C3 4212   1.518   5.597   5.638  0.1174  0.0730  0.3636
  422ACTN    H4 4213   1.442   5.605   5.560  0.6598  0.9866 -0.0806
  422ACTN    H5 4214   1.604   5.553   5.587 -1.5837  0.2010 -2.7360
  422ACTN    C2 4215   1.466   5.515   5.755  0.7761  0.0536 -0.2166
  422ACTN    O1 4216   1.541   5.445   5.820 -0.3431  0.1337 -0.7207
  422ACTN    C1 4217   1.342   5.560   5.817  1.0713  0.6808 -0.2324
  422ACTN    H1 4218   1.343   5.649   5.881  2.1442  0.4668  0.0508
  422ACTN    H2 4219   1.303   5.483   5.884  0.3956  2.3514  1.3664
  422ACTN    H3 4220   1.272   5.576   5.735 -1.0276 -2.1892  0.9211
  423ACTN    H6 4221   1.657   6.379   2.089 -1.0432  0.1258 -1.4503
  423ACTN    C3 4222   1.666   6.271   2.105 -0.1709  0.4551  0.3545
  423ACTN    H4 4223   1.643   6.212   2.017  0.6250  1.0048 -0.2241
  423ACTN    H5 4224   1.599   6.245   2.188  2.1720  2.3739  2.9450
  423ACTN    C2 4225   1.809   6.242   2.137 -0.5423  0.3912 -0.7461
  423ACTN    O1 4226   1.842   6.124   2.126  0.1069 -0.3354 -0.0146
  423ACTN    C1 4227   1.888   6.331   2.213  0.1880 -0.1326 -0.6983
  423ACTN    H1 4228   1.864   6.331   2.319 -4.7829  1.7000 -1.7049
  423ACTN    H2 4229   1.870   6.432   2.177 -0.3801 -0.0851 -0.2980
  423ACTN    H3 4230   1.990   6.297   2.198  0.0388 -1.1333  0.4671
  424ACTN    H6 4231   5.395   3.324   3.431  0.7193 -0.5602  0.0896
  424ACTN    C3 4232   5.408   3.403   3.358  0.0037 -0.3746  0.1567
  424ACTN    H4 4233   5.499   3.390   3.298  0.8780 -0.7211  1.5296
  424ACTN    H5 4234   5.325   3.418   3.289  0.3461  1.4190  0.1021
  424ACTN    C2 4235   5.424   3.532   3.442 -0.2646  0.4519  0.4126
  424ACTN    O1 4236   5.521   3.602   3.426 -0.0546 -0.3603 -0.2005
  424ACTN    C1 4237   5.321   3.577   3.543  0.3343 -0.0651  0.2919
  424ACTN    H1 4238   5.272   3.494   3.594 -2.2596  1.3455  0.1858
  424ACTN    H2 4239   5.239   3.633   3.499  0.6507  0.6384  0.5912
  424ACTN    H3 4240   5.374   3.637   3.617  0.2842 -0.4785  0.6626
  425ACTN    H6 4241   5.644   1.117   2.153  0.4624 -1.4173 -1.3106
  425ACTN    C3 4242   5.604   1.038   2.217 -0.0747 -0.1416 -0.0399
  425ACTN    H4 4243   5.623   0.935   2.187 -2.6664 -1.4470  2.6090
  425ACTN    H5 4244   5.498   1.061   2.213 -0.8319 -2.9972  2.0392
  425ACTN    C2 4245   5.665   1.053   2.347 -0.3228 -0.1670 -0.0362
  425ACTN    O1 4246   5.669   0.957   2.430  0.3090 -0.2595  0.0053
  425ACTN    C1 4247   5.749   1.178   2.363 -0.3766 -0.0998 -0.3441
  425ACTN    H1 4248   5.855   1.152   2.363  0.1808  2.0754 -0.8337
  425ACTN    H2 4249   5.724   1.216   2.461 -0.1383  0.6733 -0.5837
  425ACTN    H3 4250   5.741   1.257   2.288 -1.6875  0.6446  0.5667
  426ACTN    H6 4251   2.707   0.470   6.120  0.7132 -2.9129  0.0864
  426ACTN    C3 4252   2.663   0.480   6.219  0.3242 -0.1583 -0.3094
  426ACTN    H4 4253   2.638   0.385   6.267 -1.6076  1.2177  1.4751
  426ACTN    H5 4254   2.723   0.542   6.285  1.2153  0.4740 -1.6899
  426ACTN    C2 4255   2.524   0.538   6.188  0.0020 -0.4462 -0.2636
  426ACTN    O1 4256   2.513   0.654   6.149  0.0721  0.5747  0.2553
  426ACTN    C1 4257   2.405   0.462   6.237 -0.3066 -0.5080  0.3409
  426ACTN    H1 4258   2.416   0.357   6.213  0.6971  0.0125 -1.5668
  426ACTN    H2 4259   2.306   0.491   6.201  0.1784 -0.9923 -1.4352
  426ACTN    H3 4260   2.401   0.477   6.345  1.6657 -2.1403  0.6639
  427ACTN    H6 4261   6.922   5.089   2.704  0.3529  3.2352 -0.3981
  427ACTN    C3 4262   6.992   5.077   2.621  0.1406  0.1238 -0.1746
  427ACTN    H4 4263   6.928   5.099   2.536  0.6857 -2.0517 -1.1674
  427ACTN    H5 4264   7.071   5.153   2.620 -0.7118  1.0228  0.2441
  427ACTN    C2 4265   7.052   4.938   2.608  0.0304  0.2825  0.1318
  427ACTN    O1 4266   7.055   4.891   2.493 -0.7308 -0.4905  0.0330
  427ACTN    C1 4267   7.098   4.869   2.728  0.1294 -0.1710 -0.5283
  427ACTN    H1 4268   7.073   4.764   2.710 -0.0181 -0.2731  0.2570
  427ACTN    H2 4269   7.037   4.885   2.817  0.6547 -0.8931 -0.0347
  427ACTN    H3 4270   7.204   4.874   2.750  0.7296 -1.2105 -3.0513
  428ACTN    H6 4271   0.945   6.798   0.441  0.2362  1.1755 -1.4853
  428ACTN    C3 4272   0.917   6.717   0.374 -0.6732  0.2613 -0.0403
  428ACTN    H4 4273   1.009   6.675   0.334  0.6521  0.5041  2.6683
  428ACTN    H5 4274   0.861   6.645   0.433 -0.9757 -0.3094 -1.0192
  428ACTN    C2 4275   0.836   6.789   0.276  0.3395  0.1182  0.7419
  428ACTN    O1 4276   0.874   6.798   0.159 -0.4146  0.5080  0.2508
  428ACTN    C1 4277   0.704   6.852   0.321 -0.4366 -0.8179 -0.1596
  428ACTN    H1 4278   0.626   6.809   0.259  0.6464 -1.5946 -0.9955
  428ACTN    H2 4279   0.703   6.961   0.309 -1.9642 -0.9310 -1.2740
  428ACTN    H3 4280   0.681   6.837   0.426 -0.5562 -0.5722 -0.1484
  429ACTN    H6 4281   3.315   2.839   3.458 -1.1875 -2.5637  0.1430
  429ACTN    C3 4282   3.259   2.853   3.365 -0.1716  0.7173 -0.0285
  429ACTN    H4 4283   3.159   2.812   3.373  0.7193 -1.7520 -0.9297
  429ACTN    H5 4284   3.259   2.959   3.340 -2.2395  0.4659 -1.1873
  429ACTN    C2 4285   3.332   2.780   3.255  0.4530  0.0988 -0.3759
  429ACTN    O1 4286   3.327   2.819   3.137  0.7295 -0.2244  0.0680
  429ACTN    C1 4287   3.414   2.657   3.293  0.7894 -0.3441 -0.0828
  429ACTN    H1 4288   3.347   2.574   3.315  1.1722 -0.3543  1.1039
  429ACTN    H2 4289   3.468   2.679   3.386 -0.3553 -0.6999  0.6807
  429ACTN    H3 4290   3.489   2.620   3.224  0.2023  0.8730 -1.3981
  430ACTN    H6 4291   3.006   3.902   5.994 -0.5252  0.1896  0.0040
  430ACTN    C3 4292   2.914   3.947   5.959 -0.5703  0.1142  0.0268
  430ACTN    H4 4293   2.908   4.051   5.990  0.5384 -0.0092  0.6935
  430ACTN    H5 4294   2.912   3.951   5.850 -0.3960 -1.1650 -0.0308
  430ACTN    C2 4295   2.792   3.877   6.012 -0.6422 -0.5565 -0.3326
  430ACTN    O1 4296   2.756   3.928   6.120  0.2471  0.0597  0.1656
  430ACTN    C1 4297   2.760   3.741   5.962 -0.2019  0.8699 -0.0422
  430ACTN    H1 4298   2.841   3.714   5.894  1.3099  2.4282  1.0978
  430ACTN    H2 4299   2.665   3.729   5.910 -1.0721 -0.2904  1.7788
  430ACTN    H3 4300   2.763   3.669   6.044  1.1529 -0.3106 -1.0866
  431ACTN    H6 4301   1.056   0.591   1.095 -1.0848 -0.2202  0.8522
  431ACTN    C3 4302   1.046   0.502   1.032  0.0877  0.4904 -0.3717
  431ACTN    H4 4303   1.018   0.419   1.097 -1.7030 -0.3940 -2.1862
  431ACTN    H5 4304   0.962   0.527   0.967  0.7446 -0.8286 -1.7430
  431ACTN    C2 4305   1.162   0.457   0.956  0.1262 -0.9653  0.3281
  431ACTN    O1 4306   1.270   0.439   1.008  0.0197 -0.2204 -0.3161
  431ACTN    C1 4307   1.149   0.439   0.810  0.6682  0.4183  0.0114
  431ACTN    H1 4308   1.242   0.440   0.755  0.3466  4.5259 -0.6198
  431ACTN    H2 4309   1.088   0.520   0.770 -0.7333 -0.5757  0.0967
  431ACTN    H3 4310   1.099   0.346   0.780 -1.1364  0.6749  2.0743
  432ACTN    H6 4311   1.295   5.028   4.435 -1.3172 -0.7208 -1.6098
  432ACTN    C3 4312   1.322   4.935   4.484 -0.7098  0.0020 -0.5582
  432ACTN    H4 4313   1.335   4.851   4.415  1.4481 -0.9395  0.9266
  432ACTN    H5 4314   1.409   4.953   4.547 -2.4027  2.4709  1.1383
  432ACTN    C2 4315   1.205   4.905   4.571 -0.2854  0.1351 -0.0358
  432ACTN    O1 4316   1.214   4.886   4.691  0.5237 -0.3841  0.1274
  432ACTN    C1 4317   1.098   4.843   4.491  0.0883 -0.2497 -0.1368
  432ACTN    H1 4318   1.047   4.770   4.554 -0.3264 -0.4299 -0.6878
  432ACTN    H2 4319   1.145   4.783   4.414 -0.2278  1.5375 -1.7371
  432ACTN    H3 4320   1.033   4.920   4.450  1.2227  0.0738 -1.3633
  433ACTN    H6 4321   6.740   1.832   3.669 -0.4290  1.2151  1.0814
  433ACTN    C3 4322   6.794   1.923   3.642  0.6084  0.1577 -0.5050
  433ACTN    H4 4323   6.814   1.971   3.738 -1.3047 -0.9306  0.4629
  433ACTN    H5 4324   6.885   1.886   3.595  0.4253 -1.5856  0.4491
  433ACTN    C2 4325   6.699   2.007   3.561  0.5289  0.4805  0.1937
  433ACTN    O1 4326   6.616   1.946   3.485  0.4207  0.8126 -0.5896
  433ACTN    C1 4327   6.732   2.150   3.519 -0.3626  0.0860  0.1066
  433ACTN    H1 4328   6.745   2.167   3.412 -1.0190 -1.0074 -0.1528
  433ACTN    H2 4329   6.823   2.183   3.569 -0.2946  0.1257 -0.0434
  433ACTN    H3 4330   6.654   2.222   3.542 -0.0168  1.7063 -3.4751
  434ACTN    H6 4331   0.227   0.270   5.270 -1.3724  1.0992  0.2307
  434ACTN    C3 4332   0.220   0.294   5.164 -0.3964  0.1126 -0.0683
  434ACTN    H4 4333   0.197   0.205   5.107 -1.7174 -0.1466  0.8413
  434ACTN    H5 4334   0.139   0.367   5.154 -0.2768  0.3490  0.6363
  434ACTN    C2 4335   0.339   0.360   5.101 -0.2406 -0.5043  0.0549
  434ACTN    O1 4336   0.386   0.311   5.000 -0.3047 -0.2822 -0.1365
  434ACTN    C1 4337   0.379   0.500   5.148  0.5790  0.3088 -0.1821
  434ACTN    H1 4338   0.294   0.543   5.201 -0.3368  0.4802 -1.7630
  434ACTN    H2 4339   0.391   0.560   5.058 -1.3945 -0.9176 -1.3035
  434ACTN    H3 4340   0.471   0.486   5.205  3.2861 -1.0756 -4.6312
  435ACTN    H6 4341   1.412   1.754   6.095 -0.8573  1.8187 -0.6479
  435ACTN    C3 4342   1.340   1.730   6.017 -0.6367  0.0852 -0.3495
  435ACTN    H4 4343   1.267   1.811   6.022 -1.9079 -1.0912  0.6987
  435ACTN    H5 4344   1.384   1.740   5.918  0.8576 -1.0730  0.1711
  435ACTN    C2 4345   1.273   1.599   6.031 -0.2357 -0.2388  0.3878
  435ACTN    O1 4346   1.204   1.586   6.127  0.1768 -0.6518 -0.1724
  435ACTN    C1 4347   1.254   1.514   5.905  0.8389  0.5576 -0.3244
  435ACTN    H1 4348   1.311   1.422   5.918  1.6094  1.3754  2.3638
  435ACTN    H2 4349   1.304   1.559   5.819  0.4782  0.2585 -0.6893
  435ACTN    H3 4350   1.151   1.486   5.883  0.4112  0.5822  1.5708
  436ACTN    H6 4351   6.673   1.310   1.211 -0.4492  0.4771  0.0999
  436ACTN    C3 4352   6.680   1.210   1.170 -0.1329  0.3861  0.3746
  436ACTN    H4 4353   6.780   1.166   1.178 -0.6360 -1.4620 -2.7508
  436ACTN    H5 4354   6.608   1.142   1.216 -0.3831 -2.5119 -3.9834
  436ACTN    C2 4355   6.641   1.221   1.028  0.0790  1.1337  0.2813
  436ACTN    O1 4356   6.524   1.243   0.996 -0.1186  0.2008 -0.6836
  436ACTN    C1 4357   6.731   1.145   0.934 -0.0964  0.7570 -0.0922
  436ACTN    H1 4358   6.681   1.140   0.837 -1.1912  0.9765  0.4633
  436ACTN    H2 4359   6.757   1.044   0.967  0.2551 -0.0096 -2.5887
  436ACTN    H3 4360   6.821   1.206   0.921  0.7745 -0.4867 -0.0560
  437ACTN    H6 4361   1.204   4.750   6.034 -3.2370  0.4430  2.0485
  437ACTN    C3 4362   1.260   4.718   6.121 -0.4537  0.0664  0.2005
  437ACTN    H4 4363   1.210   4.722   6.218  0.6043 -1.3066  0.8410
  437ACTN    H5 4364   1.293   4.615   6.104 -2.4188 -0.8545  1.7540
  437ACTN    C2 4365   1.387   4.807   6.140 -0.1979  0.0345 -0.0418
  437ACTN    O1 4366   1.412   4.872   6.239 -0.4823  0.2702 -0.1427
  437ACTN    C1 4367   1.485   4.804   6.029 -0.1466 -0.2428 -0.3250
  437ACTN    H1 4368   1.446   4.846   5.936 -0.8147 -1.4855 -0.6172
  437ACTN    H2 4369   1.514   4.702   6.003  0.4679 -0.3423  0.7407
  437ACTN    H3 4370   1.570   4.864   6.061 -0.0649  0.7864 -2.3935
  438ACTN    H6 4371   4.895   5.305   4.095  1.0060  0.7221 -2.6731
  438ACTN    C3 4372   4.983   5.242   4.078  0.5497 -0.9092  0.7029
  438ACTN    H4 4373   4.975   5.188   3.984  1.5066  1.1405 -0.5976
  438ACTN    H5 4374   5.064   5.313   4.062 -0.7791  0.3658 -0.6606
  438ACTN    C2 4375   4.998   5.147   4.188 -0.1776 -0.4467 -0.2354
  438ACTN    O1 4376   5.070   5.168   4.288 -0.2881 -0.0917  0.9286
  438ACTN    C1 4377   4.902   5.035   4.204 -0.1130 -0.3453 -0.3588
  438ACTN    H1 4378   4.851   5.005   4.113 -2.1681  1.1525  0.2543
  438ACTN    H2 4379   4.826   5.074   4.272  1.0776 -0.5281  1.1266
  438ACTN    H3 4380   4.947   4.945   4.247 -0.4478 -0.4686 -0.2667
  439ACTN    H6 4381   1.299   7.228   4.352  1.6958 -0.3188 -0.1087
  439ACTN    C3 4382   1.303   7.201   4.246 -0.4049 -0.1914 -0.2421
  439ACTN    H4 4383   1.380   7.257   4.194  1.4585 -3.9878 -1.7429
  439ACTN    H5 4384   1.205   7.215   4.200 -1.0481 -1.6023  0.6644
  439ACTN    C2 4385   1.341   7.057   4.234  0.3463 -0.0483 -0.3348
  439ACTN    O1 4386   1.264   6.975   4.191  0.1761 -0.2330  0.0532
  439ACTN    C1 4387   1.484   7.015   4.266 -0.8419  0.1220 -0.2134
  439ACTN    H1 4388   1.488   7.017   4.375  1.8581  0.7810 -0.2805
  439ACTN    H2 4389   1.551   7.095   4.232 -1.2295  0.8564  0.7134
  439ACTN    H3 4390   1.494   6.920   4.213 -0.7234  0.4674 -0.8251
  440ACTN    H6 4391   1.678   5.102   0.211 -0.3536 -0.3887  1.2119
  440ACTN    C3 4392   1.665   5.078   0.105  0.4051 -0.1873  1.0678
  440ACTN    H4 4393   1.717   4.985   0.083  3.5944  1.0243  3.1516
  440ACTN    H5 4394   1.558   5.059   0.102  0.3664 -0.9433  4.6753
  440ACTN    C2 4395   1.722   5.186   0.017  0.3338 -0.0714 -0.4655
  440ACTN    O1 4396   1.837   5.179  -0.026 -0.2153 -0.2247  0.1745
  440ACTN    C1 4397   1.634   5.299  -0.026  0.1989 -0.2260  0.4487
  440ACTN    H1 4398   1.571   5.329   0.057 -0.7439 -1.3022  0.1225
  440ACTN    H2 4399   1.572   5.275  -0.112  2.3804  2.4380 -1.9804
  440ACTN    H3 4400   1.702   5.378  -0.060 -2.9680  1.1991 -2.9151
  441ACTN    H6 4401   5.124   6.652   5.723 -1.4925 -0.3572  2.1549
  441ACTN    C3 4402   5.043   6.680   5.655  0.0378 -0.6046  0.1863
  441ACTN    H4 4403   5.043   6.619   5.565 -0.0319 -1.2368  0.6111
  441ACTN    H5 4404   4.948   6.656   5.703 -0.7232  1.5777 -0.1638
  441ACTN    C2 4405   5.046   6.829   5.627 -0.2083  0.6541 -0.1357
  441ACTN    O1 4406   5.012   6.911   5.713 -0.4628 -0.0509 -0.6302
  441ACTN    C1 4407   5.094   6.865   5.493 -1.1106 -0.2246  0.2465
  441ACTN    H1 4408   5.203   6.871   5.489 -1.2123  1.7162 -0.7464
  441ACTN    H2 4409   5.049   6.962   5.469  1.4231  0.7371 -0.8542
  441ACTN    H3 4410   5.058   6.796   5.416 -1.7609  0.6550 -0.2542
  442ACTN    H6 4411   2.432   0.359   2.742  0.2658 -2.0240  1.8620
  442ACTN    C3 4412   2.396   0.407   2.834 -0.1940  0.6197  0.3527
  442ACTN    H4 4413   2.297   0.451   2.818  0.7643  1.9914 -2.1622
  442ACTN    H5 4414   2.390   0.323   2.903  1.6331  2.4505  2.8433
  442ACTN    C2 4415   2.494   0.511   2.885  0.0598  0.3976 -0.5212
  442ACTN    O1 4416   2.499   0.619   2.830  0.0754  0.5753 -0.0742
  442ACTN    C1 4417   2.586   0.473   3.000 -0.2217  0.2211  0.2322
  442ACTN    H1 4418   2.660   0.549   3.026 -0.5072  0.9283 -0.9944
  442ACTN    H2 4419   2.639   0.383   2.972  0.3976 -0.2724  2.8055
  442ACTN    H3 4420   2.530   0.468   3.094  0.3245 -0.5882  0.5170
  443ACTN    H6 4421   0.866   2.754   1.798 -0.8265  0.3819 -1.8331
  443ACTN    C3 4422   0.937   2.683   1.754  0.1124  0.3427 -0.3301
  443ACTN    H4 4423   0.889   2.586   1.743  1.2186 -0.3022  0.4758
  443ACTN    H5 4424   0.957   2.717   1.652  0.0851  0.7139 -0.2130
  443ACTN    C2 4425   1.065   2.676   1.829 -0.3517  0.0328 -0.0753
  443ACTN    O1 4426   1.070   2.656   1.953 -0.3872 -0.6915  1.0255
  443ACTN    C1 4427   1.191   2.711   1.756 -0.5046  0.2556 -0.0299
  443ACTN    H1 4428   1.170   2.757   1.659  1.1320 -0.7176 -0.8588
  443ACTN    H2 4429   1.260   2.629   1.737 -1.9205 -0.4894 -2.2229
  443ACTN    H3 4430   1.239   2.796   1.804  0.3930  0.9407 -2.0713
  444ACTN    H6 4431   2.604   3.400   2.384 -2.0738  2.4515 -1.6791
  444ACTN    C3 4432   2.622   3.462   2.472 -0.2701 -0.0632 -0.2175
  444ACTN    H4 4433   2.582   3.422   2.565 -1.2626  0.8721 -0.2314
  444ACTN    H5 4434   2.729   3.464   2.493 -0.6291  2.2554  1.6407
  444ACTN    C2 4435   2.560   3.601   2.461 -0.4990 -0.4034  0.7150
  444ACTN    O1 4436   2.448   3.619   2.407 -0.6688 -0.3841  0.5575
  444ACTN    C1 4437   2.606   3.699   2.555  0.5323 -0.3528  0.7430
  444ACTN    H1 4438   2.645   3.782   2.496  1.0290 -0.0568  1.4685
  444ACTN    H2 4439   2.695   3.661   2.606 -0.4038 -1.2585  1.7301
  444ACTN    H3 4440   2.531   3.732   2.627 -1.8317 -2.8564 -0.4872
  445ACTN    H6 4441   1.277   7.261   4.761  0.7956 -0.4367  0.0339
  445ACTN    C3 4442   1.284   7.361   4.719 -0.5029 -0.2839  0.1538
  445ACTN    H4 4443   1.182   7.396   4.727 -0.7819 -1.4605  1.8426
  445ACTN    H5 4444   1.344   7.424   4.785  0.2522 -0.5801 -0.2407
  445ACTN    C2 4445   1.345   7.359   4.580 -0.3400 -0.4419 -0.2158
  445ACTN    O1 4446   1.295   7.427   4.493  0.3932 -0.0411 -0.7055
  445ACTN    C1 4447   1.487   7.303   4.563  0.4091 -0.2553  0.4174
  445ACTN    H1 4448   1.485   7.255   4.465  1.1250  0.0380  0.2598
  445ACTN    H2 4449   1.496   7.222   4.635  0.6260 -0.5953  0.0059
  445ACTN    H3 4450   1.566   7.377   4.577 -0.2785  0.2551  1.6303
  446ACTN    H6 4451   1.351   3.847   4.904 -3.0137 -1.6159  0.8497
  446ACTN    C3 4452   1.385   3.819   5.004  0.5110 -0.1006  0.1542
  446ACTN    H4 4453   1.487   3.854   5.016  2.0048 -3.5356 -1.8742
  446ACTN    H5 4454   1.340   3.880   5.082  1.8946  0.5739  0.4363
  446ACTN    C2 4455   1.362   3.680   5.035  0.5908 -0.3920  0.1142
  446ACTN    O1 4456   1.252   3.656   5.080 -0.2766  0.6211  0.4400
  446ACTN    C1 4457   1.451   3.574   5.004 -0.6757  0.2690 -0.1077
  446ACTN    H1 4458   1.552   3.596   5.040  0.2245 -3.2089 -0.2748
  446ACTN    H2 4459   1.469   3.575   4.897 -1.6221 -0.2588 -0.2723
  446ACTN    H3 4460   1.419   3.476   5.040 -2.5628  2.3585  4.2243
  447ACTN    H6 4461   1.774   5.544   2.689 -1.7740  0.5986 -0.6820
  447ACTN    C3 4462   1.802   5.604   2.602  0.5184 -0.5160 -0.7441
  447ACTN    H4 4463   1.728   5.578   2.526  1.1309 -0.3624 -1.3963
  447ACTN    H5 4464   1.798   5.709   2.628  0.1733 -0.8283  0.5096
  447ACTN    C2 4465   1.933   5.567   2.560  0.1268 -0.0789 -0.2931
  447ACTN    O1 4466   2.031   5.615   2.612 -0.9882  0.4097 -0.0899
  447ACTN    C1 4467   1.937   5.426   2.505 -0.2515 -0.3224  0.2353
  447ACTN    H1 4468   1.840   5.378   2.513  0.4689 -2.4392 -3.1192
  447ACTN    H2 4469   2.014   5.372   2.561 -2.1462 -0.8155  2.4597
  447ACTN    H3 4470   1.957   5.426   2.398 -0.5607  0.9243  0.1641
  448ACTN    H6 4471   6.969   1.537   0.556  3.1340 -0.5614 -1.0077
  448ACTN    C3 4472   6.992   1.643   0.553 -0.4369  0.3459  0.5283
  448ACTN    H4 4473   7.022   1.675   0.653  3.3523  0.5964 -0.5850
  448ACTN    H5 4474   7.071   1.651   0.478  0.8934 -0.3539  1.8298
  448ACTN    C2 4475   6.872   1.716   0.491  0.3976 -0.2945  0.2880
  448ACTN    O1 4476   6.852   1.714   0.368  0.1840  0.1281 -0.3606
  448ACTN    C1 4477   6.771   1.786   0.582 -0.2116  0.9597 -0.0854
  448ACTN    H1 4478   6.675   1.813   0.537 -1.4496 -1.3424  1.0606
  448ACTN    H2 4479   6.820   1.873   0.625 -0.8421  0.9235  0.7429
  448ACTN    H3 4480   6.772   1.714   0.664  0.1761 -0.0339 -0.9562
  449ACTN    H6 4481   2.481   4.753   1.520 -0.3400 -2.8447  1.4706
  449ACTN    C3 4482   2.578   4.779   1.562 -0.3878  0.4741 -0.3404
  449ACTN    H4 4483   2.651   4.699   1.548  0.6640  0.9981  1.9615
  449ACTN    H5 4484   2.615   4.872   1.518 -0.6701  0.7570  0.0278
  449ACTN    C2 4485   2.554   4.802   1.711  0.1599  0.0624 -1.1655
  449ACTN    O1 4486   2.597   4.909   1.760  0.2926 -0.5079 -0.1736
  449ACTN    C1 4487   2.510   4.693   1.804 -0.3078  0.1674  0.6724
  449ACTN    H1 4488   2.410   4.714   1.840 -0.0681  1.4063  0.6142
  449ACTN    H2 4489   2.566   4.683   1.897 -0.1145 -2.0871  0.3503
  449ACTN    H3 4490   2.513   4.599   1.749 -1.6033  0.5544 -0.0637
  450ACTN    H6 4491   2.417   3.817   6.097 -0.3189  2.4645  0.7431
  450ACTN    C3 4492   2.353   3.778   6.176 -0.3244  0.3649 -0.2535
  450ACTN    H4 4493   2.306   3.863   6.225 -1.0192 -1.6335  2.7527
  450ACTN    H5 4494   2.278   3.718   6.126 -0.4443 -0.7311  1.1847
  450ACTN    C2 4495   2.428   3.697   6.274  0.3890  0.3026  0.3374
  450ACTN    O1 4496   2.390   3.704   6.393 -0.7739 -0.1027 -0.4566
  450ACTN    C1 4497   2.529   3.602   6.224  1.4748 -0.8393 -0.2880
  450ACTN    H1 4498   2.627   3.646   6.240  1.4198  0.0198 -2.1438
  450ACTN    H2 4499   2.518   3.576   6.118 -0.4354 -0.8724 -0.0947
  450ACTN    H3 4500   2.522   3.510   6.282  0.8602 -0.8825 -0.4260
  451ACTN    H6 4501   1.511   5.262   2.658  0.2776 -2.3887  0.5439
  451ACTN    C3 4502   1.435   5.245   2.582 -0.0467  0.7218  0.0845
  451ACTN    H4 4503   1.453   5.313   2.499 -0.3293  2.5119  1.4548
  451ACTN    H5 4504   1.467   5.144   2.555 -0.1814  1.2527 -2.0748
  451ACTN    C2 4505   1.288   5.249   2.631  0.6679  0.4289 -0.4882
  451ACTN    O1 4506   1.214   5.342   2.594  0.6536  0.7141  0.0330
  451ACTN    C1 4507   1.235   5.135   2.707  0.4272  0.1307  0.1713
  451ACTN    H1 4508   1.311   5.097   2.775  0.3271  0.5650  0.5264
  451ACTN    H2 4509   1.198   5.057   2.639  1.3389  1.0718 -1.4130
  451ACTN    H3 4510   1.150   5.168   2.767  0.3809  0.2374  0.0457
  452ACTN    H6 4511   1.605   0.505   3.225  0.6228  1.5370 -0.2339
  452ACTN    C3 4512   1.636   0.471   3.324 -0.2720  0.9540 -0.1420
  452ACTN    H4 4513   1.741   0.491   3.345 -1.3589  2.8753  3.9098
  452ACTN    H5 4514   1.575   0.521   3.399 -1.0187  1.1504 -0.8722
  452ACTN    C2 4515   1.618   0.317   3.322 -0.8137  0.6419 -0.7773
  452ACTN    O1 4516   1.688   0.257   3.241  0.4197  0.5496 -0.0664
  452ACTN    C1 4517   1.550   0.242   3.433  0.0426 -0.2037  0.6406
  452ACTN    H1 4518   1.511   0.149   3.392  1.3085 -0.1604 -0.7180
  452ACTN    H2 4519   1.477   0.308   3.478  2.1028  1.3747  1.7423
  452ACTN    H3 4520   1.622   0.211   3.509 -1.2201 -1.8015  1.2297
  453ACTN    H6 4521   4.482   2.544   6.453 -0.5558  1.1022  0.2423
  453ACTN    C3 4522   4.392   2.552   6.514 -0.8207 -0.1213  0.0090
  453ACTN    H4 4523   4.314   2.495   6.463 -1.4393 -0.1002  0.9191
  453ACTN    H5 4524   4.412   2.504   6.610  0.1330 -0.5492 -0.3902
  453ACTN    C2 4525   4.360   2.706   6.533 -0.3422 -0.3234  0.1823
  453ACTN    O1 4526   4.259   2.741   6.598 -0.4358  0.3096  0.0334
  453ACTN    C1 4527   4.437   2.805   6.449 -0.0245  0.0100 -0.4711
  453ACTN    H1 4528   4.403   2.906   6.472 -1.2107 -0.9433  2.2239
  453ACTN    H2 4529   4.432   2.797   6.341  2.2997  2.1572 -0.7809
  453ACTN    H3 4530   4.542   2.801   6.475 -0.3293 -1.4639  0.6109
  454ACTN    H6 4531   3.180   1.528   4.124 -0.7970 -0.9846  0.7440
  454ACTN    C3 4532   3.173   1.555   4.229 -0.1213  0.6903  0.3836
  454ACTN    H4 4533   3.269   1.546   4.280  0.0457  0.2872 -0.0044
  454ACTN    H5 4534   3.139   1.657   4.249 -0.6977  0.6516 -0.4010
  454ACTN    C2 4535   3.076   1.457   4.294 -0.0545  0.5646 -0.2787
  454ACTN    O1 4536   3.041   1.359   4.232 -0.5355 -0.8252 -0.0139
  454ACTN    C1 4537   3.034   1.472   4.434  0.0933  0.2615  0.2518
  454ACTN    H1 4538   3.028   1.373   4.481  0.2997  0.4428  0.6644
  454ACTN    H2 4539   2.940   1.526   4.439  0.0730  0.6467 -3.0541
  454ACTN    H3 4540   3.107   1.531   4.489 -1.1744 -0.4307  2.7419
  455ACTN    H6 4541   5.018   4.763   3.132 -0.6625 -1.1817 -2.2184
  455ACTN    C3 4542   4.985   4.665   3.168 -0.0858 -0.6331 -0.1155
  455ACTN    H4 4543   5.010   4.655   3.273  1.3613 -2.0075 -0.5664
  455ACTN    H5 4544   4.878   4.655   3.149 -0.9397  3.1592  2.1394
  455ACTN    C2 4545   5.060   4.554   3.100 -0.5066  0.6881 -0.0999
  455ACTN    O1 4546   5.002   4.447   3.065 -0.4754  0.0710  0.0790
  455ACTN    C1 4547   5.209   4.574   3.074 -1.0606 -0.5080  0.5907
  455ACTN    H1 4548   5.217   4.660   3.007 -0.9844  0.2503  1.5587
  455ACTN    H2 4549   5.262   4.487   3.036  1.2015  1.1044 -0.0277
  455ACTN    H3 4550   5.249   4.610   3.169 -0.3245  2.7957 -0.9123
  456ACTN    H6 4551   5.241   3.985   6.239  1.3181 -0.0674 -2.4017
  456ACTN    C3 4552   5.184   4.070   6.203 -0.0546 -0.1011 -0.3680
  456ACTN    H4 4553   5.228   4.125   6.120 -1.0833  0.6213 -0.4549
  456ACTN    H5 4554   5.105   4.015   6.150  0.0495 -0.3585 -0.2546
  456ACTN    C2 4555   5.111   4.151   6.311  0.0035  0.2059 -0.5400
  456ACTN    O1 4556   5.113   4.117   6.425 -0.0263  0.2493  0.1743
  456ACTN    C1 4557   5.044   4.278   6.257 -0.0099 -0.1836 -0.1915
  456ACTN    H1 4558   5.115   4.338   6.200 -0.9800 -0.3472 -1.6059
  456ACTN    H2 4559   4.990   4.340   6.329 -0.2701 -0.9787  0.3152
  456ACTN    H3 4560   4.969   4.255   6.181  1.5504  0.2106 -1.8828
  457ACTN    H6 4561   7.174   5.193   1.133 -1.0251  1.2117 -1.3447
  457ACTN    C3 4562   7.162   5.109   1.066  0.0398 -0.0364  0.0065
  457ACTN    H4 4563   7.085   5.042   1.105 -1.1270  0.0796 -2.0290
  457ACTN    H5 4564   7.135   5.152   0.969 -0.2415  0.2396  0.2073
  457ACTN    C2 4565   7.294   5.034   1.067 -0.3404  0.4837  0.2074
  457ACTN    O1 4566   7.378   5.100   1.016  0.0342  0.0517  0.2408
  457ACTN    C1 4567   7.305   4.883   1.067 -0.4853  0.1505  0.3534
  457ACTN    H1 4568   7.273   4.838   1.161 -0.5984  0.5031  0.4827
  457ACTN    H2 4569   7.409   4.854   1.049 -0.0909  2.4147 -1.2198
  457ACTN    H3 4570   7.242   4.840   0.989  1.1403  1.3781 -1.6905
  458ACTN    H6 4571   7.167   0.265   1.213  0.5664  0.6674  0.2755
  458ACTN    C3 4572   7.096   0.334   1.167 -0.3697 -0.2185  0.3697
  458ACTN    H4 4573   7.130   0.432   1.200  1.3492 -0.6134 -0.1502
  458ACTN    H5 4574   7.100   0.324   1.058 -0.4719 -0.8291  0.4204
  458ACTN    C2 4575   6.954   0.307   1.212 -0.3064 -0.1914 -0.4786
  458ACTN    O1 4576   6.862   0.386   1.191 -0.2755 -0.8261 -0.4228
  458ACTN    C1 4577   6.934   0.193   1.298  0.5370 -0.0274  0.0813
  458ACTN    H1 4578   6.954   0.093   1.258 -0.9999  0.5818 -2.3679
  458ACTN    H2 4579   6.831   0.192   1.332  0.2104 -0.8058 -0.8854
  458ACTN    H3 4580   6.998   0.200   1.385  0.4213 -2.7389  0.4317
  459ACTN    H6 4581   1.348   6.171   4.157 -0.0027 -0.7049  0.0299
  459ACTN    C3 4582   1.255   6.142   4.109 -0.0393 -0.0438 -0.3018
  459ACTN    H4 4583   1.196   6.233   4.117 -0.5495 -0.3007 -1.0898
  459ACTN    H5 4584   1.267   6.111   4.005  1.6692 -0.4489  0.0053
  459ACTN    C2 4585   1.183   6.025   4.174 -0.1441 -0.2509  0.0414
  459ACTN    O1 4586   1.148   6.021   4.292  0.1579 -0.6474 -0.3283
  459ACTN    C1 4587   1.170   5.903   4.087  0.3739 -0.3646  0.5766
  459ACTN    H1 4588   1.171   5.919   3.979  0.9852 -0.6957  0.5255
  459ACTN    H2 4589   1.080   5.849   4.115  0.4051 -2.4293 -2.9927
  459ACTN    H3 4590   1.250   5.830   4.102 -0.2529 -1.2577 -0.3320
  460ACTN    H6 4591   6.912   6.256   4.451  1.9759 -1.3841  0.0797
  460ACTN    C3 4592   6.977   6.330   4.405  0.4128  0.0216  0.0829
  460ACTN    H4 4593   7.033   6.391   4.476 -0.2431  0.4907  0.2023
  460ACTN    H5 4594   7.053   6.278   4.346  0.8868  1.7904 -0.9017
  460ACTN    C2 4595   6.905   6.423   4.324 -0.1796  0.2798 -0.8711
  460ACTN    O1 4596   6.960   6.515   4.261  0.2159  0.5361  0.1445
  460ACTN    C1 4597   6.761   6.393   4.303 -0.1752  0.2619  0.0505
  460ACTN    H1 4598   6.733   6.431   4.205  2.6955  1.2449 -0.4598
  460ACTN    H2 4599   6.702   6.449   4.376  1.2380  2.4184 -0.4167
  460ACTN    H3 4600   6.738   6.286   4.302 -1.9371  0.6364 -0.3466
  461ACTN    H6 4601   2.999   0.463   0.706  0.8251 -0.6119 -0.6993
  461ACTN    C3 4602   2.931   0.401   0.763  0.4950  0.1388 -0.2639
  461ACTN    H4 4603   2.974   0.318   0.819 -0.7839 -0.9076 -0.7874
  461ACTN    H5 4604   2.889   0.470   0.836 -0.5768  3.3306 -3.7580
  461ACTN    C2 4605   2.828   0.349   0.671 -0.3889  0.0194 -0.2760
  461ACTN    O1 4606   2.766   0.246   0.703  0.1109  0.0418  0.1676
  461ACTN    C1 4607   2.793   0.422   0.542  0.2354  0.4160 -0.3285
  461ACTN    H1 4608   2.785   0.345   0.465 -0.2461  2.3286 -2.2452
  461ACTN    H2 4609   2.876   0.487   0.515  0.3865  0.6022  0.5599
  461ACTN    H3 4610   2.701   0.478   0.562 -0.1625 -0.1242 -0.6318
  462ACTN    H6 4611   5.817   4.313   4.968  0.3068  1.2048 -0.1521
  462ACTN    C3 4612   5.799   4.258   4.875 -0.1951  0.4344  0.3899
  462ACTN    H4 4613   5.709   4.202   4.897 -0.1362  0.5551  0.9585
  462ACTN    H5 4614   5.773   4.320   4.789  3.2905 -1.3566 -2.0410
  462ACTN    C2 4615   5.908   4.160   4.846 -0.1337 -0.1037 -0.6467
  462ACTN    O1 4616   5.886   4.041   4.818 -0.0069  0.0177 -0.3908
  462ACTN    C1 4617   6.045   4.226   4.816 -0.9223 -0.5648  0.0770
  462ACTN    H1 4618   6.065   4.308   4.884  1.3989 -0.4372 -0.7224
  462ACTN    H2 4619   6.043   4.270   4.717 -0.7280 -0.0499  0.3045
  462ACTN    H3 4620   6.128   4.155   4.809 -1.0414 -0.5572 -1.4988
  463ACTN    H6 4621   1.092   5.373   1.054  0.7045 -1.0819 -1.1583
  463ACTN    C3 4622   1.122   5.310   1.137 -0.1465  0.4216  0.3319
  463ACTN    H4 4623   1.228   5.322   1.163  0.1638 -0.6966 -0.3910
  463ACTN    H5 4624   1.112   5.207   1.101  1.0122 -1.3099  4.5841
  463ACTN    C2 4625   1.034   5.337   1.261 -0.6105 -0.6706 -1.0653
  463ACTN    O1 4626   1.070   5.298   1.371 -0.4131 -0.2638  0.2220
  463ACTN    C1 4627   0.919   5.429   1.265 -0.4793 -0.4345 -0.2652
  463ACTN    H1 4628   0.872   5.435   1.167  0.6425 -1.0881 -0.8552
  463ACTN    H2 4629   0.959   5.525   1.296  1.1205 -1.2797  0.3667
  463ACTN    H3 4630   0.838   5.398   1.331 -1.2354 -0.3840 -1.1657
  464ACTN    H6 4631   2.681   5.736   3.531  0.1783 -0.0463 -0.3469
  464ACTN    C3 4632   2.726   5.790   3.615  0.7429 -1.0359  0.0021
  464ACTN    H4 4633   2.827   5.808   3.579 -0.0556  2.5698 -0.7094
  464ACTN    H5 4634   2.678   5.887   3.629  1.2623 -0.5800 -1.3213
  464ACTN    C2 4635   2.739   5.706   3.734 -0.3276  0.3611  0.1917
  464ACTN    O1 4636   2.640   5.665   3.794  0.2028  0.1581  0.2072
  464ACTN    C1 4637   2.871   5.688   3.798  0.2492 -0.3273  0.1748
  464ACTN    H1 4638   2.879   5.748   3.888  0.0582  0.3957 -0.2875
  464ACTN    H2 4639   2.957   5.707   3.734  0.1066  0.3320  0.1831
  464ACTN    H3 4640   2.878   5.584   3.832 -2.4825  0.2437  2.6844
  465ACTN    H6 4641   1.556   5.850   6.373 -2.1020  0.7038  0.0144
  465ACTN    C3 4642   1.551   5.843   6.265 -0.3949 -0.0809 -0.0181
  465ACTN    H4 4643   1.498   5.934   6.236  0.6249  0.9100  1.1441
  465ACTN    H5 4644   1.649   5.853   6.218 -1.3371  2.2538 -1.5993
  465ACTN    C2 4645   1.482   5.704   6.227 -0.7031 -0.0567 -0.2601
  465ACTN    O1 4646   1.504   5.648   6.118  0.1521  0.1062 -0.4181
  465ACTN    C1 4647   1.439   5.625   6.346  0.3912  0.2576 -0.8336
  465ACTN    H1 4648   1.402   5.679   6.433 -2.4933 -2.7509 -0.1107
  465ACTN    H2 4649   1.528   5.566   6.367  0.2562  0.6242  0.8157
  465ACTN    H3 4650   1.366   5.548   6.325 -0.9922  0.7904  1.7906
  466ACTN    H6 4651   7.102   5.451   6.553 -0.2093 -0.4263 -0.9923
  466ACTN    C3 4652   7.014   5.399   6.513 -0.3887 -0.6259 -0.3520
  466ACTN    H4 4653   6.991   5.311   6.572  0.6091 -1.3322 -0.9892
  466ACTN    H5 4654   6.933   5.468   6.533  0.2399 -0.2192  0.8620
  466ACTN    C2 4655   7.039   5.375   6.363  0.8938 -0.7496 -0.5970
  466ACTN    O1 4656   6.990   5.281   6.310 -0.2030  0.0912 -0.1072
  466ACTN    C1 4657   7.093   5.484   6.274 -0.4529 -0.7638 -0.2781
  466ACTN    H1 4658   7.119   5.575   6.327  0.2349 -1.1138 -0.0147
  466ACTN    H2 4659   7.005   5.507   6.214 -1.3149 -1.2700  0.7691
  466ACTN    H3 4660   7.177   5.449   6.214  0.0408 -1.3686  0.7618
  467ACTN    H6 4661   6.452   4.390   5.709  0.0147 -0.5144 -0.8462
  467ACTN    C3 4662   6.433   4.454   5.623  0.1880 -0.0141 -0.5124
  467ACTN    H4 4663   6.481   4.550   5.641 -0.7398  0.2172  0.7388
  467ACTN    H5 4664   6.470   4.407   5.532 -0.1183 -0.8902 -0.1933
  467ACTN    C2 4665   6.289   4.482   5.613 -0.1080  0.7608  0.3722
  467ACTN    O1 4666   6.213   4.412   5.681 -0.7697 -0.4265  0.2710
  467ACTN    C1 4667   6.222   4.581   5.524  0.1206 -0.3354  0.1624
  467ACTN    H1 4668   6.251   4.682   5.554 -0.6500 -1.0584  3.5673
  467ACTN    H2 4669   6.113   4.578   5.528 -0.0111  2.0876 -0.5611
  467ACTN    H3 4670   6.250   4.564   5.420  1.0035 -0.0974  0.3527
  468ACTN    H6 4671   1.935   4.340   1.485  0.7300 -0.3695 -0.8634
  468ACTN    C3 4672   2.032   4.292   1.501  0.4820 -0.5194  0.2997
  468ACTN    H4 4673   2.066   4.263   1.401  1.6374  3.5825 -0.6223
  468ACTN    H5 4674   2.106   4.367   1.532  1.5399 -1.8349  0.9934
  468ACTN    C2 4675   2.025   4.166   1.584  0.1825  0.0328 -0.1218
  468ACTN    O1 4676   1.944   4.072   1.565 -0.1375  0.1619  0.4783
  468ACTN    C1 4677   2.132   4.150   1.697  0.2839 -0.2261  0.2479
  468ACTN    H1 4678   2.123   4.053   1.747  2.2268 -0.1638  0.7617
  468ACTN    H2 4679   2.122   4.229   1.771 -0.2970 -0.6484  0.6246
  468ACTN    H3 4680   2.234   4.168   1.662  1.2406 -1.5348  2.2499
  469ACTN    H6 4681   4.400   1.289   0.101 -0.0920 -0.4533  0.9977
  469ACTN    C3 4682   4.368   1.371   0.165  1.0533  0.5522  0.3082
  469ACTN    H4 4683   4.424   1.371   0.259  2.3774 -0.0036 -0.4700
  469ACTN    H5 4684   4.389   1.465   0.113 -1.3765  1.0501  0.1841
  469ACTN    C2 4685   4.222   1.362   0.198 -0.1265  0.5782  0.3507
  469ACTN    O1 4686   4.151   1.439   0.144 -0.0204 -0.2821  0.0187
  469ACTN    C1 4687   4.161   1.248   0.279 -0.6819 -0.2802 -0.3498
  469ACTN    H1 4688   4.088   1.277   0.355 -0.8644 -2.1284  0.2015
  469ACTN    H2 4689   4.243   1.187   0.317 -1.0608 -0.0533  0.8695
  469ACTN    H3 4690   4.120   1.171   0.213  1.2274  0.2043 -2.1521
  470ACTN    H6 4691   0.302   2.980   4.172  1.7202  0.0043 -0.0453
  470ACTN    C3 4692   0.293   2.874   4.150  0.6772  0.0965 -0.1210
  470ACTN    H4 4693   0.232   2.829   4.228  1.0494  1.9573  1.2891
  470ACTN    H5 4694   0.249   2.872   4.051 -1.2980  1.5753  0.6891
  470ACTN    C2 4695   0.430   2.814   4.135  0.1179  0.1620 -0.1415
  470ACTN    O1 4696   0.526   2.887   4.129 -0.3441 -0.0620  0.4434
  470ACTN    C1 4697   0.438   2.668   4.125 -0.3340  0.3473 -0.1335
  470ACTN    H1 4698   0.347   2.625   4.166  0.5389 -0.0069  1.4940
  470ACTN    H2 4699   0.534   2.643   4.170 -0.5308  1.2377  0.8354
  470ACTN    H3 4700   0.442   2.640   4.020 -0.4280  1.3394 -0.4098
  471ACTN    H6 4701   7.117   0.781   7.133 -0.4348 -0.3307  1.4638
  471ACTN    C3 4702   7.218   0.818   7.116 -0.6571 -0.1813  0.4556
  471ACTN    H4 4703   7.217   0.912   7.061  0.7353 -1.0390 -1.0913
  471ACTN    H5 4704   7.254   0.826   7.218  0.8172  0.9847 -0.1370
  471ACTN    C2 4705   7.295   0.714   7.040 -0.8867  0.2242  0.0447
  471ACTN    O1 4706   7.396   0.670   7.092  0.3575 -0.0834  0.1508
  471ACTN    C1 4707   7.243   0.636   6.928 -0.0187 -1.0421 -0.2335
  471ACTN    H1 4708   7.241   0.706   6.844 -3.2388 -0.6520  0.1193
  471ACTN    H2 4709   7.142   0.599   6.945 -0.1797 -0.6154 -0.2454
  471ACTN    H3 4710   7.309   0.553   6.902  1.6508  0.0814  0.2974
  472ACTN    H6 4711   0.925   6.390   5.000  1.0679  1.5019 -1.6871
  472ACTN    C3 4712   0.853   6.399   4.919 -0.6448  0.4694 -0.3270
  472ACTN    H4 4713   0.907   6.366   4.830  1.7105 -0.4472  1.4003
  472ACTN    H5 4714   0.784   6.317   4.938 -2.0911  1.3846 -1.5034
  472ACTN    C2 4715   0.793   6.531   4.913  0.0079 -0.1321 -0.0483
  472ACTN    O1 4716   0.681   6.544   4.958  0.4967  0.2312 -0.1447
  472ACTN    C1 4717   0.871   6.650   4.880  0.1053 -0.8184 -0.2722
  472ACTN    H1 4718   0.822   6.738   4.921  2.3525  0.6263 -0.6204
  472ACTN    H2 4719   0.883   6.662   4.772  0.7103  0.2294 -0.0919
  472ACTN    H3 4720   0.968   6.647   4.930 -0.0099  0.9794  0.0577
  473ACTN    H6 4721   5.339   5.154   3.448  0.7044  0.2250  0.9587
  473ACTN    C3 4722   5.260   5.228   3.452 -0.1495 -0.5927 -0.3332
  473ACTN    H4 4723   5.271   5.294   3.366 -2.4868  2.1305  1.3574
  473ACTN    H5 4724   5.163   5.183   3.431 -0.6385  0.9284 -1.4125
  473ACTN    C2 4725   5.274   5.312   3.577  0.3072 -0.0558 -0.5341
  473ACTN    O1 4726   5.295   5.255   3.682 -0.3593  0.2220 -0.4219
  473ACTN    C1 4727   5.295   5.454   3.551 -1.1539  0.5073  0.1493
  473ACTN    H1 4728   5.196   5.498   3.535 -1.2639 -0.1767 -1.1323
  473ACTN    H2 4729   5.354   5.457   3.459  0.9363  1.1505  1.4732
  473ACTN    H3 4730   5.351   5.508   3.627  1.0587 -1.2775 -0.1632
  474ACTN    H6 4731   3.490   4.088   6.753  0.2544  0.1798  0.2170
  474ACTN    C3 4732   3.528   3.994   6.713 -0.1250  0.1287 -0.0278
  474ACTN    H4 4733   3.613   4.009   6.645 -0.9537 -0.4759 -1.2147
  474ACTN    H5 4734   3.560   3.928   6.794 -1.2203 -1.0719 -0.5613
  474ACTN    C2 4735   3.414   3.919   6.638  0.1004 -0.1155  0.0713
  474ACTN    O1 4736   3.360   3.821   6.686 -0.8530 -0.7831  0.7865
  474ACTN    C1 4737   3.351   3.984   6.517 -0.3949  0.4603  0.3228
  474ACTN    H1 4738   3.370   3.936   6.421 -1.3032  1.7801 -0.5407
  474ACTN    H2 4739   3.374   4.090   6.505  0.3631  0.0667 -1.8849
  474ACTN    H3 4740   3.245   3.974   6.541 -0.2829  0.2993  0.7559
  475ACTN    H6 4741   1.168   0.418   3.885  0.4380 -1.8278 -2.2096
  475ACTN    C3 4742   1.252   0.377   3.941 -0.0978 -0.1875 -0.1749
  475ACTN    H4 4743   1.249   0.417   4.042  1.3750 -0.2990 -0.0713
  475ACTN    H5 4744   1.249   0.268   3.948  2.0840 -0.3379 -1.1349
  475ACTN    C2 4745   1.386   0.423   3.883  0.1632 -0.8020  0.7118
  475ACTN    O1 4746   1.422   0.343   3.801 -0.1486 -0.3477  0.1144
  475ACTN    C1 4747   1.444   0.563   3.890  0.2000  0.4354  0.2063
  475ACTN    H1 4748   1.460   0.606   3.790 -0.0992  0.4230  0.1543
  475ACTN    H2 4749   1.539   0.565   3.944  0.1303  0.3284  0.3305
  475ACTN    H3 4750   1.378   0.631   3.944  0.4516  0.5908  0.3220
  476ACTN    H6 4751   4.286   3.639   6.111  0.5598  0.8150 -0.6548
  476ACTN    C3 4752   4.258   3.605   6.012 -0.6565  0.2683 -0.1301
  476ACTN    H4 4753   4.194   3.517   6.021 -1.3779  0.8266  0.1864
  476ACTN    H5 4754   4.200   3.681   5.960 -0.0733  0.5604 -0.3528
  476ACTN    C2 4755   4.378   3.566   5.926  0.2437 -0.3561  0.1226
  476ACTN    O1 4756   4.495   3.598   5.965  0.3726  0.4092  0.3574
  476ACTN    C1 4757   4.360   3.496   5.792  0.6455  0.0662  0.0589
  476ACTN    H1 4758   4.303   3.406   5.816  3.4098 -1.8334 -0.2118
  476ACTN    H2 4759   4.453   3.458   5.748  0.0248 -2.1599  0.5755
  476ACTN    H3 4760   4.311   3.561   5.720  0.2402 -1.2652 -0.9029
  477ACTN    H6 4761   3.069   1.115   2.435  0.2533  0.5626 -1.0975
  477ACTN    C3 4762   2.988   1.042   2.424  0.7161 -0.1948  0.3515
  477ACTN    H4 4763   2.936   1.051   2.519 -0.4252  2.1702 -0.4559
  477ACTN    H5 4764   3.033   0.943   2.424  2.7584  0.7104  0.1013
  477ACTN    C2 4765   2.900   1.065   2.307  0.2176  0.3626 -0.5360
  477ACTN    O1 4766   2.787   1.012   2.302 -0.0983  0.2093 -0.4004
  477ACTN    C1 4767   2.936   1.166   2.204 -0.2652 -0.2782 -0.1256
  477ACTN    H1 4768   2.935   1.269   2.240  0.3900 -0.4898  0.5172
  477ACTN    H2 4769   2.868   1.146   2.122 -1.4009 -0.2492  0.7957
  477ACTN    H3 4770   3.032   1.134   2.165 -0.6585 -0.1678 -1.2052
  478ACTN    H6 4771   4.607   0.527   4.038  0.8131  1.3615 -1.5800
  478ACTN    C3 4772   4.509   0.568   4.013 -0.2934 -0.4186 -0.2795
  478ACTN    H4 4773   4.474   0.502   3.934  1.9073 -1.5435 -0.3455
  478ACTN    H5 4774   4.449   0.569   4.104 -1.2864  1.0458 -0.9308
  478ACTN    C2 4775   4.521   0.706   3.947  0.3360  0.3976 -0.2320
  478ACTN    O1 4776   4.613   0.733   3.870  0.2804  0.3461 -0.1680
  478ACTN    C1 4777   4.411   0.806   3.971 -0.2132  0.2840 -0.3681
  478ACTN    H1 4778   4.450   0.906   3.948 -0.7680  0.5097 -0.3276
  478ACTN    H2 4779   4.380   0.791   4.074  2.0772 -1.1040  0.1467
  478ACTN    H3 4780   4.326   0.777   3.910  0.2851  0.9521 -1.4014
  479ACTN    H6 4781   6.065   4.574   6.855  0.2098 -0.5480  0.2829
  479ACTN    C3 4782   6.080   4.651   6.780 -0.3515  0.8210  1.5573
  479ACTN    H4 4783   6.186   4.671   6.767 -0.3256 -0.3591 -0.1241
  479ACTN    H5 4784   6.040   4.612   6.686 -0.5361  0.5348  1.7546
  479ACTN    C2 4785   6.012   4.783   6.811  0.6586  1.3118 -0.4203
  479ACTN    O1 4786   5.918   4.779   6.893 -1.1900 -0.3134  0.8535
  479ACTN    C1 4787   6.100   4.902   6.816 -0.0747 -0.5369 -0.3464
  479ACTN    H1 4788   6.084   4.951   6.912  1.7452  0.8282 -0.7016
  479ACTN    H2 4789   6.078   4.965   6.729  0.1485  0.6018  0.4113
  479ACTN    H3 4790   6.206   4.881   6.801 -0.4664 -3.2833  0.4508
  480ACTN    H6 4791   7.160   6.110   4.074  1.4825 -1.8513 -0.9994
  480ACTN    C3 4792   7.240   6.133   4.144 -0.0073 -0.3235  0.2263
  480ACTN    H4 4793   7.212   6.090   4.241 -1.1688  0.8592  0.4304
  480ACTN    H5 4794   7.327   6.078   4.110 -1.3483 -1.0843 -2.0915
  480ACTN    C2 4795   7.262   6.282   4.157 -0.2651 -1.3708  0.5888
  480ACTN    O1 4796   7.350   6.321   4.237 -0.3745  0.5098  0.1077
  480ACTN    C1 4797   7.186   6.385   4.075  0.1964 -0.3515  0.1069
  480ACTN    H1 4798   7.119   6.340   4.002  2.3107 -1.1374 -1.4175
  480ACTN    H2 4799   7.266   6.432   4.018 -0.0885  1.7580  1.4031
  480ACTN    H3 4800   7.146   6.473   4.124  1.1189  0.0929  0.0666
  481ACTN    H6 4801   6.787   1.207   6.048 -0.7785  0.9236  0.4809
  481ACTN    C3 4802   6.886   1.229   6.087 -0.5140  0.1187  0.2732
  481ACTN    H4 4803   6.913   1.329   6.053  0.2284  0.3018  1.3548
  481ACTN    H5 4804   6.877   1.222   6.196 -0.5504  2.3706  0.4509
  481ACTN    C2 4805   6.985   1.126   6.039  0.0862  0.8037  0.0933
  481ACTN    O1 4806   6.984   1.015   6.085  0.4283  0.1129 -0.1928
  481ACTN    C1 4807   7.062   1.169   5.916  0.1240  0.5102 -0.5092
  481ACTN    H1 4808   6.996   1.231   5.855 -0.2270 -0.0717 -0.7184
  481ACTN    H2 4809   7.087   1.082   5.856 -0.1015 -0.8729  1.3474
  481ACTN    H3 4810   7.152   1.223   5.944 -1.4111  2.9522 -0.0839
  482ACTN    H6 4811   0.949   3.673   2.441 -0.4823  0.2925  2.4305
  482ACTN    C3 4812   0.862   3.621   2.479 -1.0874 -0.1600  0.4664
  482ACTN    H4 4813   0.775   3.671   2.438  0.3848  0.4867 -1.9514
  482ACTN    H5 4814   0.862   3.519   2.440  1.6703 -0.7017  1.7320
  482ACTN    C2 4815   0.861   3.622   2.628  0.0918  0.2312 -0.9341
  482ACTN    O1 4816   0.962   3.579   2.691 -0.1485  0.3521  0.4587
  482ACTN    C1 4817   0.751   3.685   2.703 -0.2006  0.5240 -0.3342
  482ACTN    H1 4818   0.757   3.674   2.811 -1.3323 -0.0149 -0.3197
  482ACTN    H2 4819   0.657   3.643   2.669 -0.6049  1.4460 -0.3830
  482ACTN    H3 4820   0.739   3.790   2.674  2.0667  1.1940  1.0155
  483ACTN    H6 4821   1.800   6.075   5.770  0.6062 -0.6312 -2.0966
  483ACTN    C3 4822   1.713   6.137   5.750  0.5322 -0.0398 -0.0221
  483ACTN    H4 4823   1.674   6.159   5.850 -2.6542 -1.5049 -0.8997
  483ACTN    H5 4824   1.762   6.218   5.696  0.4247 -0.5517 -0.8924
  483ACTN    C2 4825   1.629   6.047   5.675 -0.0480  0.2608 -0.1373
  483ACTN    O1 4826   1.684   6.006   5.576  0.3452  0.4476  0.2929
  483ACTN    C1 4827   1.507   5.987   5.724 -0.2745 -0.4375 -0.6057
  483ACTN    H1 4828   1.433   5.975   5.645 -0.7472 -0.7204 -0.1269
  483ACTN    H2 4829   1.472   6.058   5.800  1.0742 -0.5042  0.0863
  483ACTN    H3 4830   1.516   5.890   5.773 -1.3135 -0.1800  0.1304
  484ACTN    H6 4831   4.671   1.830   1.111 -0.8995  3.3299 -1.4748
  484ACTN    C3 4832   4.713   1.874   1.200  0.3331  0.1627 -0.4088
  484ACTN    H4 4833   4.819   1.899   1.193  0.2348  1.7827  2.6508
  484ACTN    H5 4834   4.656   1.967   1.211  0.4709  0.3549 -1.2779
  484ACTN    C2 4835   4.681   1.783   1.318  0.1235  0.2895 -0.2889
  484ACTN    O1 4836   4.597   1.695   1.308  0.1383  0.0262  0.2586
  484ACTN    C1 4837   4.744   1.810   1.449 -0.1352 -0.1501 -0.1394
  484ACTN    H1 4838   4.850   1.785   1.439 -0.4869 -2.3876  1.3808
  484ACTN    H2 4839   4.707   1.758   1.538 -2.6036 -0.3606 -1.2350
  484ACTN    H3 4840   4.751   1.917   1.467  0.1827  0.1938 -2.1711
  485ACTN    H6 4841   1.033   0.084   3.519 -0.6621 -1.4962 -1.5370
  485ACTN    C3 4842   0.927   0.086   3.546 -0.3088  0.2532 -0.1987
  485ACTN    H4 4843   0.913   0.014   3.627  0.6125 -0.0045 -0.2605
  485ACTN    H5 4844   0.877   0.052   3.456  0.9266 -1.3756 -0.2933
  485ACTN    C2 4845   0.882   0.220   3.587  0.2821  0.1222 -0.1405
  485ACTN    O1 4846   0.840   0.300   3.503 -0.2012 -0.2467  0.0786
  485ACTN    C1 4847   0.868   0.238   3.732  0.2341  0.7724 -0.2745
  485ACTN    H1 4848   0.770   0.203   3.764  0.5451 -0.2884 -0.4492
  485ACTN    H2 4849   0.877   0.344   3.752 -0.2759  0.5149  1.3757
  485ACTN    H3 4850   0.944   0.179   3.784  1.1515  0.4013 -1.9793
  486ACTN    H6 4851   1.697   3.925   3.263  1.2990  1.1142  0.5167
  486ACTN    C3 4852   1.756   3.877   3.341 -0.0196 -0.4152  0.6147
  486ACTN    H4 4853   1.685   3.836   3.413 -1.0463 -0.6258 -0.5156
  486ACTN    H5 4854   1.818   3.796   3.303  1.4925  1.2791 -0.5957
  486ACTN    C2 4855   1.834   3.976   3.410 -0.6672 -0.1792 -0.5515
  486ACTN    O1 4856   1.767   4.075   3.439 -0.2525  0.2175  0.3412
  486ACTN    C1 4857   1.956   3.941   3.482 -0.1464 -0.1372  0.9106
  486ACTN    H1 4858   2.035   3.917   3.411  0.7764  4.1123  0.3531
  486ACTN    H2 4859   1.930   3.855   3.543 -0.8312 -0.8431 -0.3681
  486ACTN    H3 4860   1.994   4.028   3.537  1.4228 -0.7458  0.8076
  487ACTN    H6 4861   0.327   5.137   1.209  0.8627 -0.2261 -0.6371
  487ACTN    C3 4862   0.336   5.211   1.130  0.1051 -0.1323 -0.6342
  487ACTN    H4 4863   0.436   5.204   1.087 -0.4572 -1.9230 -1.7041
  487ACTN    H5 4864   0.266   5.175   1.055  1.5790  0.2799 -2.2303
  487ACTN    C2 4865   0.301   5.349   1.180 -0.2275 -0.2104 -0.1798
  487ACTN    O1 4866   0.376   5.400   1.267  0.1209 -0.3456 -0.0904
  487ACTN    C1 4867   0.185   5.421   1.116  0.7592  0.7094  0.1523
  487ACTN    H1 4868   0.096   5.374   1.158  1.8102 -2.1314 -0.6824
  487ACTN    H2 4869   0.192   5.410   1.008  3.3427  0.1444  0.3371
  487ACTN    H3 4870   0.191   5.525   1.148 -0.9709  0.5323  1.1003
  488ACTN    H6 4871   2.399   5.206   6.846  0.0348 -0.3296 -1.2135
  488ACTN    C3 4872   2.402   5.098   6.850 -0.4912 -0.3017  0.3903
  488ACTN    H4 4873   2.451   5.061   6.940  0.1665 -3.3758 -1.1507
  488ACTN    H5 4874   2.303   5.051   6.849 -0.4364 -0.5056  2.1034
  488ACTN    C2 4875   2.482   5.041   6.736 -0.3702 -0.0556 -0.3197
  488ACTN    O1 4876   2.575   4.963   6.759 -0.2412  0.4335 -0.5772
  488ACTN    C1 4877   2.436   5.067   6.594 -0.2547  0.5746 -0.1377
  488ACTN    H1 4878   2.516   5.116   6.539  2.0426 -2.3155  0.5087
  488ACTN    H2 4879   2.349   5.133   6.590 -0.7940 -0.1593 -0.8226
  488ACTN    H3 4880   2.405   4.978   6.539  0.5858 -0.2849  0.7446
  489ACTN    H6 4881   0.770   2.222   2.670 -0.1856  1.4513 -1.6667
  489ACTN    C3 4882   0.769   2.115   2.648 -0.1955  1.0197  0.3745
  489ACTN    H4 4883   0.857   2.080   2.594  0.0883 -0.1605  1.5693
  489ACTN    H5 4884   0.763   2.059   2.741 -1.1872  0.4641 -0.0074
  489ACTN    C2 4885   0.652   2.073   2.575 -0.3978 -0.0568 -0.3256
  489ACTN    O1 4886   0.661   2.016   2.462 -0.1187  0.1631  0.6975
  489ACTN    C1 4887   0.520   2.100   2.640  0.4249  1.2079 -0.1010
  489ACTN    H1 4888   0.479   2.190   2.595  0.9416  1.6539  0.3094
  489ACTN    H2 4889   0.538   2.129   2.744 -2.6262  1.5175  0.3823
  489ACTN    H3 4890   0.458   2.011   2.635 -0.3888  1.6719  1.3882
  490ACTN    H6 4891   0.234   6.098   5.412  2.4535 -1.2262 -1.0857
  490ACTN    C3 4892   0.157   6.096   5.335 -0.0280  0.0657  1.2733
  490ACTN    H4 4893   0.210   6.046   5.254 -0.2796  3.2398 -0.9228
  490ACTN    H5 4894   0.069   6.038   5.365 -0.3255  0.9365  2.0907
  490ACTN    C2 4895   0.116   6.237   5.291 -0.2751 -0.1717  0.1243
  490ACTN    O1 4896   0.123   6.321   5.379  0.1317 -0.4064 -0.1382
  490ACTN    C1 4897   0.041   6.278   5.170  0.3522 -0.3492  0.0294
  490ACTN    H1 4898   0.047   6.384   5.145  1.3232 -0.0057  1.6716
  490ACTN    H2 4899  -0.063   6.246   5.161  0.5251 -0.7677 -0.5172
  490ACTN    H3 4900   0.093   6.223   5.091 -0.0634 -0.9082  0.1398
  491ACTN    H6 4901   0.748   6.096   2.943  0.5443  0.4536 -1.3034
  491ACTN    C3 4902   0.657   6.132   2.894 -0.2119  0.3022 -0.0187
  491ACTN    H4 4903   0.574   6.074   2.935 -0.3623  1.0438  0.7463
  491ACTN    H5 4904   0.635   6.228   2.941 -0.9076  0.7792 -1.3056
  491ACTN    C2 4905   0.670   6.135   2.746 -0.6003 -0.1804  0.3681
  491ACTN    O1 4906   0.627   6.237   2.689 -0.1541  0.4632 -0.1725
  491ACTN    C1 4907   0.761   6.047   2.684  0.5326 -0.6519  1.0794
  491ACTN    H1 4908   0.725   6.027   2.583  4.5176  0.4629 -0.6443
  491ACTN    H2 4909   0.786   5.952   2.732 -2.4120 -1.5976  0.8635
  491ACTN    H3 4910   0.851   6.106   2.670 -0.4494  1.1124  2.0448
  492ACTN    H6 4911   6.235   6.996   4.360  2.0294 -1.8191  1.6830
  492ACTN    C3 4912   6.300   6.973   4.275  0.0120  0.1779 -0.4718
  492ACTN    H4 4913   6.332   6.870   4.294 -1.4245 -0.0132  1.1166
  492ACTN    H5 4914   6.252   6.969   4.177 -0.3041 -0.4019 -0.2987
  492ACTN    C2 4915   6.416   7.070   4.278 -0.0765 -0.4784  0.2287
  492ACTN    O1 4916   6.532   7.029   4.252  0.5482  0.1269 -0.0460
  492ACTN    C1 4917   6.387   7.215   4.279 -0.0696 -0.2169 -0.2420
  492ACTN    H1 4918   6.312   7.238   4.355  0.3721  1.8072 -0.4037
  492ACTN    H2 4919   6.361   7.260   4.183 -0.0596  1.0436  0.3481
  492ACTN    H3 4920   6.472   7.268   4.320 -0.7084 -0.8729  2.0546
  493ACTN    H6 4921   6.881   6.338   1.825  1.9545 -1.0699 -0.5355
  493ACTN    C3 4922   6.950   6.417   1.796  0.9594  0.2122  0.5505
  493ACTN    H4 4923   6.997   6.388   1.703 -1.1288 -2.4003  0.2673
  493ACTN    H5 4924   6.884   6.503   1.780  1.3735  0.3371 -0.5057
  493ACTN    C2 4925   7.039   6.453   1.909 -0.3533 -0.2481 -0.3590
  493ACTN    O1 4926   7.154   6.406   1.918 -1.1332 -0.0994 -0.1641
  493ACTN    C1 4927   7.005   6.571   1.996 -0.3825 -0.5298  0.0978
  493ACTN    H1 4928   6.935   6.540   2.074  1.5715  0.7434  2.3980
  493ACTN    H2 4929   6.972   6.660   1.942  1.1413  0.2404  0.4226
  493ACTN    H3 4930   7.090   6.613   2.049 -0.7926  0.3890  0.0424
  494ACTN    H6 4931   0.934   6.898   1.631 -0.4216  0.0307 -2.9062
  494ACTN    C3 4932   0.862   6.816   1.623 -0.4741 -0.2454  0.0996
  494ACTN    H4 4933   0.894   6.748   1.545  2.4543 -0.5486  1.4792
  494ACTN    H5 4934   0.864   6.754   1.713 -0.0263 -1.1523 -0.5422
  494ACTN    C2 4935   0.722   6.859   1.601  0.5186  0.1129 -0.3186
  494ACTN    O1 4936   0.651   6.799   1.522  0.3081 -0.3056  0.2089
  494ACTN    C1 4937   0.657   6.944   1.704 -0.3069  0.6799 -0.0550
  494ACTN    H1 4938   0.562   6.991   1.678  0.1682  1.2107 -0.8434
  494ACTN    H2 4939   0.721   7.030   1.724  2.3594 -1.0432 -0.9123
  494ACTN    H3 4940   0.640   6.885   1.794  1.2347 -2.7722 -1.8999
  495ACTN    H6 4941   0.619   1.379   5.923  1.6177 -0.2232 -2.5863
  495ACTN    C3 4942   0.667   1.470   5.958  0.1703 -0.4481  0.0370
  495ACTN    H4 4943   0.640   1.546   5.885 -0.5247  0.6096  1.3559
  495ACTN    H5 4944   0.610   1.505   6.045  2.3577  0.7556  1.0123
  495ACTN    C2 4945   0.815   1.452   5.983  0.2378 -0.1523  0.7800
  495ACTN    O1 4946   0.892   1.479   5.893  0.1794 -0.3406  0.5115
  495ACTN    C1 4947   0.859   1.371   6.095 -0.8711  0.0758 -0.0158
  495ACTN    H1 4948   0.919   1.431   6.164  0.6970 -0.1375 -1.1559
  495ACTN    H2 4949   0.933   1.299   6.059  1.1165  2.3390 -0.5672
  495ACTN    H3 4950   0.786   1.318   6.155 -0.5059  0.3558  0.6863
  496ACTN    H6 4951   5.634   2.220   4.519 -2.6648  0.2070 -0.7317
  496ACTN    C3 4952   5.628   2.126   4.463 -0.1019 -0.2417 -0.3179
  496ACTN    H4 4953   5.685   2.048   4.514 -0.0852  1.5125  2.4465
  496ACTN    H5 4954   5.527   2.089   4.481  0.6827 -0.7115  3.6213
  496ACTN    C2 4955   5.669   2.130   4.322  0.1204 -0.4700  0.1761
  496ACTN    O1 4956   5.604   2.072   4.235 -0.5097  0.4851 -0.2681
  496ACTN    C1 4957   5.783   2.219   4.292  0.2593  0.8327 -0.2862
  496ACTN    H1 4958   5.861   2.171   4.233  1.4012  1.4541  0.7003
  496ACTN    H2 4959   5.826   2.261   4.383  1.7101  1.0468 -1.0476
  496ACTN    H3 4960   5.751   2.303   4.230  2.4479  1.6259 -0.3815
  497ACTN    H6 4961   1.003   1.799   6.548 -2.1898 -0.6456 -0.2877
  497ACTN    C3 4962   1.013   1.781   6.655  0.3393  0.0191 -0.3855
  497ACTN    H4 4963   0.964   1.856   6.717 -0.8647 -1.2433  0.2250
  497ACTN    H5 4964   0.949   1.696   6.682  1.1749  0.0583  1.8647
  497ACTN    C2 4965   1.154   1.751   6.709  0.0345 -0.2744 -0.4771
  497ACTN    O1 4966   1.231   1.845   6.732 -0.0677 -0.4956  0.4737
  497ACTN    C1 4967   1.204   1.610   6.721  0.7168 -1.5522 -0.7098
  497ACTN    H1 4968   1.311   1.611   6.742  0.5651 -1.5329  0.0668
  497ACTN    H2 4969   1.196   1.554   6.628  1.8862 -0.3764 -1.5370
  497ACTN    H3 4970   1.150   1.562   6.803  1.0790 -0.0851  0.4059
  498ACTN    H6 4971   2.175   5.233   6.896  0.7814  1.4262  1.3168
  498ACTN    C3 4972   2.069   5.253   6.876  0.6113  0.2030  0.9837
  498ACTN    H4 4973   2.003   5.178   6.920 -2.3082  1.2718 -1.4737
  498ACTN    H5 4974   2.046   5.345   6.930 -1.7652  0.3323 -0.1754
  498ACTN    C2 4975   2.062   5.254   6.730  0.1729  0.1883 -0.1616
  498ACTN    O1 4976   2.067   5.146   6.680  0.1580 -0.1242  0.7163
  498ACTN    C1 4977   2.031   5.373   6.653  0.3273  0.0023  0.4367
  498ACTN    H1 4978   2.009   5.352   6.548  0.5998 -1.7609  0.7226
  498ACTN    H2 4979   2.113   5.444   6.656 -0.7488  1.3966 -1.5570
  498ACTN    H3 4980   1.949   5.431   6.697 -1.1441 -1.0256 -0.8925
  499ACTN    H6 4981   5.404   0.454   4.520  0.7353 -1.7142 -3.2602
  499ACTN    C3 4982   5.340   0.528   4.474  0.0934  0.2346  0.5795
  499ACTN    H4 4983   5.396   0.621   4.465 -2.2852  1.6345 -0.3311
  499ACTN    H5 4984   5.308   0.477   4.383  1.5985 -0.7116  0.5641
  499ACTN    C2 4985   5.223   0.548   4.563 -0.0858 -0.3201  0.0926
  499ACTN    O1 4986   5.111   0.563   4.511  0.3241  0.0677 -0.0591
  499ACTN    C1 4987   5.238   0.566   4.713  0.5607 -0.3285 -0.5409
  499ACTN    H1 4988   5.142   0.581   4.763  1.4954  1.0112  0.8966
  499ACTN    H2 4989   5.288   0.663   4.720 -2.1373  1.0453  0.3064
  499ACTN    H3 4990   5.299   0.488   4.759  1.0307  1.7865  2.5437
  500ACTN    H6 4991   0.435   7.052   4.392 -3.4140  0.2635  1.5423
  500ACTN    C3 4992   0.488   7.096   4.476 -0.0726 -0.2263 -0.2487
  500ACTN    H4 4993   0.424   7.134   4.555 -0.1141 -0.1138 -0.3364
  500ACTN    H5 4994   0.538   7.017   4.532 -0.0005  0.6704  0.9822
  500ACTN    C2 4995   0.589   7.196   4.446  0.3578  0.3924  0.1240
  500ACTN    O1 4996   0.572   7.261   4.346 -0.1423 -0.3933  0.6054
  500ACTN    C1 4997   0.660   7.243   4.566  0.4855 -0.2587 -0.0179
  500ACTN    H1 4998   0.764   7.212   4.575  1.3959  2.1006 -1.7661
  500ACTN    H2 4999   0.610   7.213   4.658  0.2873 -1.7560 -0.6136
  500ACTN    H3 5000   0.667   7.352   4.568 -0.6967 -0.1829  0.4002
  501ACTN    H6 5001   0.553   1.757   6.313  0.2220 -0.5663  3.2769
  501ACTN    C3 5002   0.539   1.649   6.303 -0.1356 -0.2207 -0.4339
  501ACTN    H4 5003   0.431   1.636   6.294  0.0554 -1.6370 -0.7006
  501ACTN    H5 5004   0.594   1.605   6.220 -0.7899 -2.2441  0.2015
  501ACTN    C2 5005   0.583   1.596   6.430 -0.6571  0.0871  0.2832
  501ACTN    O1 5006   0.550   1.651   6.531  0.3203  0.4254  0.0494
  501ACTN    C1 5007   0.679   1.483   6.426  0.0895 -0.0326 -0.5167
  501ACTN    H1 5008   0.633   1.400   6.372  0.4687 -0.3530 -0.3435
  501ACTN    H2 5009   0.691   1.450   6.529 -0.3612  1.4942  0.0433
  501ACTN    H3 5010   0.777   1.510   6.387  0.4653 -1.6156 -0.6821
  502ACTN    H6 5011   5.607   0.066   0.308 -0.9608 -1.5471  1.2513
  502ACTN    C3 5012   5.638   0.142   0.380 -1.0885 -0.4844  0.1932
  502ACTN    H4 5013   5.557   0.215   0.368  0.3770  1.3902  1.4706
  502ACTN    H5 5014   5.642   0.104   0.482  0.7956 -2.1589 -0.4792
  502ACTN    C2 5015   5.765   0.198   0.334  0.0677 -0.1345 -0.1925
  502ACTN    O1 5016   5.797   0.310   0.370  0.0140 -0.1422 -0.0995
  502ACTN    C1 5017   5.832   0.136   0.214  0.7424  0.7179 -0.4463
  502ACTN    H1 5018   5.922   0.194   0.191 -0.0435  2.3734  0.5805
  502ACTN    H2 5019   5.765   0.144   0.128 -0.5526 -0.0372  0.4708
  502ACTN    H3 5020   5.843   0.029   0.228  0.2964  0.4859 -1.7745
  503ACTN    H6 5021   0.752   6.655   4.190 -1.1754 -0.2834  1.6891
  503ACTN    C3 5022   0.786   6.757   4.205  0.2714 -0.5071  0.1484
  503ACTN    H4 5023   0.879   6.761   4.261 -0.3203  0.6204  1.0793
  503ACTN    H5 5024   0.811   6.794   4.105 -0.5166 -2.0801 -0.6561
  503ACTN    C2 5025   0.686   6.856   4.254  0.0266 -0.3489 -0.6243
  503ACTN    O1 5026   0.703   6.886   4.373  0.1121  0.0857 -0.3575
  503ACTN    C1 5027   0.569   6.894   4.167 -0.0695  0.2340 -0.0633
  503ACTN    H1 5028   0.509   6.810   4.131 -0.5182 -0.2092  1.6750
  503ACTN    H2 5029   0.584   6.952   4.076 -1.6937 -1.3265 -1.3551
  503ACTN    H3 5030   0.502   6.958   4.225  0.1515 -2.0533  2.8534
  504ACTN    H6 5031   0.485   1.811   4.347 -0.1936 -0.3245  1.2830
  504ACTN    C3 5032   0.580   1.865   4.345 -0.3218 -0.1243 -0.0064
  504ACTN    H4 5033   0.662   1.812   4.297  0.9413  1.5084  0.3418
  504ACTN    H5 5034   0.556   1.957   4.292  0.6018  0.8427  1.2387
  504ACTN    C2 5035   0.612   1.900   4.489  0.1684 -0.0429  0.5511
  504ACTN    O1 5036   0.655   2.006   4.517 -0.0035 -0.4486  0.5883
  504ACTN    C1 5037   0.582   1.799   4.596 -0.0344  0.3323 -0.1119
  504ACTN    H1 5038   0.514   1.827   4.677 -2.7745  0.3886 -2.3608
  504ACTN    H2 5039   0.678   1.761   4.632  1.0543  1.7888 -1.4115
  504ACTN    H3 5040   0.527   1.717   4.550 -0.3206 -0.2245  1.1933
  505ACTN    H6 5041   0.642   6.538   2.812  1.3783  0.5166  0.5924
  505ACTN    C3 5042   0.573   6.536   2.897 -0.4529  0.6461 -0.8576
  505ACTN    H4 5043   0.476   6.571   2.861 -2.0355 -0.2537  2.3018
  505ACTN    H5 5044   0.561   6.432   2.929  1.0588  0.7155 -0.0214
  505ACTN    C2 5045   0.626   6.610   3.013 -0.4634  0.7394  0.1473
  505ACTN    O1 5046   0.700   6.704   2.983  0.4440  0.0214 -0.4262
  505ACTN    C1 5047   0.576   6.593   3.152  0.0647  0.3066  0.1945
  505ACTN    H1 5048   0.656   6.614   3.223  0.6880 -0.5558 -0.2302
  505ACTN    H2 5049   0.547   6.490   3.175 -1.2657  0.5012 -0.6117
  505ACTN    H3 5050   0.488   6.650   3.178 -0.3930  0.1887 -1.0574
  506ACTN    H6 5051   7.111   5.131   3.591  1.0250  0.5478  2.1285
  506ACTN    C3 5052   7.165   5.204   3.532 -0.2975 -0.3229 -0.2464
  506ACTN    H4 5053   7.161   5.175   3.427 -0.9997  0.0295 -0.3232
  506ACTN    H5 5054   7.119   5.301   3.551  0.5912  0.2223 -0.8257
  506ACTN    C2 5055   7.300   5.195   3.605 -0.5374 -0.0311 -0.4890
  506ACTN    O1 5056   7.349   5.294   3.656 -0.2058 -0.0504 -0.0392
  506ACTN    C1 5057   7.380   5.064   3.621  0.3001  0.2425 -0.4604
  506ACTN    H1 5058   7.325   4.997   3.688 -2.6779  3.3107  0.3052
  506ACTN    H2 5059   7.478   5.086   3.661  1.2807 -1.5432 -1.7827
  506ACTN    H3 5060   7.377   5.001   3.532 -0.3179  1.7079 -1.4907
  507ACTN    H6 5061   6.501   7.254   3.693  0.9051 -1.4440  0.8888
  507ACTN    C3 5062   6.495   7.295   3.794 -0.0840  0.7080  0.0006
  507ACTN    H4 5063   6.397   7.265   3.831 -0.5418  3.0132  0.6805
  507ACTN    H5 5064   6.573   7.253   3.858  0.6306 -0.3873 -1.5393
  507ACTN    C2 5065   6.526   7.441   3.784 -0.6265 -0.2403 -0.2957
  507ACTN    O1 5066   6.531   7.508   3.888  0.7515  0.5623 -0.6622
  507ACTN    C1 5067   6.582   7.504   3.657  0.0072  0.2013  0.3079
  507ACTN    H1 5068   6.532   7.469   3.567 -0.2651  1.2507  0.0489
  507ACTN    H2 5069   6.687   7.475   3.656 -0.0462  0.0251 -0.1789
  507ACTN    H3 5070   6.576   7.613   3.658 -0.4179  0.1746  1.6497
  508ACTN    H6 5071   2.720   1.469   5.436  1.3181 -1.4882 -0.0567
  508ACTN    C3 5072   2.643   1.457   5.360  0.9296 -0.2726  0.1247
  508ACTN    H4 5073   2.663   1.513   5.269  0.1657  0.4993  0.4191
  508ACTN    H5 5074   2.627   1.350   5.343 -0.4142 -0.4663  2.3912
  508ACTN    C2 5075   2.503   1.499   5.414 -0.0849 -0.2840  0.0517
  508ACTN    O1 5076   2.392   1.461   5.377 -0.6704  0.2136 -0.6551
  508ACTN    C1 5077   2.506   1.592   5.525  0.2900 -0.1642 -0.6982
  508ACTN    H1 5078   2.444   1.676   5.493 -1.6382 -0.8241  1.2096
  508ACTN    H2 5079   2.609   1.622   5.542  0.7168 -2.0331  0.0822
  508ACTN    H3 5080   2.462   1.570   5.622  1.1625  2.2538  0.3075
  509ACTN    H6 5081   7.126   5.784   5.659 -0.7594 -0.7892  0.7162
  509ACTN    C3 5082   7.148   5.683   5.625  0.4427 -0.4106  0.3491
  509ACTN    H4 5083   7.254   5.678   5.598  0.5167 -0.7745  0.7051
  509ACTN    H5 5084   7.136   5.617   5.711 -2.4827  0.5221  0.6955
  509ACTN    C2 5085   7.057   5.645   5.519  0.5399 -0.2254  0.1909
  509ACTN    O1 5086   6.963   5.714   5.484  0.2799 -0.5060 -0.3714
  509ACTN    C1 5087   7.046   5.502   5.463  0.4340  0.0250  0.1565
  509ACTN    H1 5088   7.075   5.510   5.358 -2.0193  0.0783 -0.5501
  509ACTN    H2 5089   6.944   5.471   5.483  0.3345  0.8001  0.8953
  509ACTN    H3 5090   7.109   5.427   5.510 -0.3943 -0.9165 -0.2442
  510ACTN    H6 5091   4.338   7.054   0.299 -0.9714 -0.6092  0.5506
  510ACTN    C3 5092   4.299   7.129   0.368 -0.2786  0.3644 -0.1155
  510ACTN    H4 5093   4.315   7.091   0.469 -0.4300 -0.6245 -0.4616
  510ACTN    H5 5094   4.356   7.219   0.346  0.3873  0.2955  1.2962
  510ACTN    C2 5095   4.154   7.137   0.347  0.4775  0.3173  0.0300
  510ACTN    O1 5096   4.110   7.249   0.322 -0.0305  0.1877  0.2015
  510ACTN    C1 5097   4.065   7.032   0.408  0.7000  0.3436 -0.2900
  510ACTN    H1 5098   3.974   7.005   0.355  0.4818  1.6608 -0.5989
  510ACTN    H2 5099   4.049   7.067   0.510  1.6942  1.6064 -0.5512
  510ACTN    H3 5100   4.122   6.940   0.421  0.1283  0.0297 -0.0089
  511ACTN    H6 5101   4.814   3.498   0.678  0.8625 -0.7739  3.2985
  511ACTN    C3 5102   4.711   3.463   0.685  0.1940  0.4311  0.4398
  511ACTN    H4 5103   4.641   3.544   0.707 -1.8599 -0.8007 -1.3778
  511ACTN    H5 5104   4.683   3.421   0.589  2.1832  0.7399 -0.2862
  511ACTN    C2 5105   4.709   3.351   0.786  0.0879 -0.7117  0.3387
  511ACTN    O1 5106   4.778   3.246   0.775 -0.2136  0.2616 -0.1244
  511ACTN    C1 5107   4.607   3.360   0.891  0.3074  0.0633 -0.6935
  511ACTN    H1 5108   4.509   3.334   0.851  0.3981  1.1244 -1.6374
  511ACTN    H2 5109   4.601   3.457   0.938 -2.8554 -0.7414  0.6505
  511ACTN    H3 5110   4.636   3.279   0.958 -0.8999 -0.2180 -0.5082
  512ACTN    H6 5111   2.667   2.243   5.486  2.2939  1.0921  0.0190
  512ACTN    C3 5112   2.663   2.271   5.381  0.4611 -0.6800 -0.4154
  512ACTN    H4 5113   2.607   2.196   5.325 -1.2842 -0.4952  1.0454
  512ACTN    H5 5114   2.611   2.366   5.370  0.2152 -0.8896 -1.1224
  512ACTN    C2 5115   2.801   2.263   5.332  0.7598 -1.0663 -0.5385
  512ACTN    O1 5116   2.824   2.183   5.244 -0.5216 -0.4820 -0.5688
  512ACTN    C1 5117   2.896   2.355   5.404 -0.0150 -0.1646 -0.6105
  512ACTN    H1 5118   2.999   2.341   5.369  0.0579 -0.8623 -0.1484
  512ACTN    H2 5119   2.883   2.324   5.508  0.5241 -0.7259 -0.7034
  512ACTN    H3 5120   2.880   2.462   5.393 -0.7173 -0.4174 -2.0257
  513ACTN    H6 5121   6.044   4.547   6.218 -0.6506 -0.4679 -0.0168
  513ACTN    C3 5122   6.078   4.452   6.261  0.3321  0.4256  1.1926
  513ACTN    H4 5123   6.025   4.378   6.202  0.4982  0.4419  1.0222
  513ACTN    H5 5124   6.181   4.439   6.225 -0.0972 -3.1339  1.0934
  513ACTN    C2 5125   6.061   4.426   6.412  0.0559 -0.0873  0.2960
  513ACTN    O1 5126   5.971   4.477   6.476 -0.3968 -0.3494  0.2385
  513ACTN    C1 5127   6.174   4.361   6.481 -0.4849 -0.4291 -0.6275
  513ACTN    H1 5128   6.159   4.301   6.571  1.1202  1.3593  0.8853
  513ACTN    H2 5129   6.254   4.434   6.500  0.1980 -1.6250  1.2922
  513ACTN    H3 5130   6.216   4.296   6.405  1.8689 -0.2104  0.4236
  514ACTN    H6 5131   6.957   1.876   3.178  2.5557  0.9042 -1.2742
  514ACTN    C3 5132   6.946   1.772   3.146  0.2380  0.6183  0.3746
  514ACTN    H4 5133   7.025   1.751   3.074 -0.9201 -0.7064 -0.5222
  514ACTN    H5 5134   6.849   1.755   3.099  0.2244 -0.6335  0.8362
  514ACTN    C2 5135   6.966   1.669   3.252  0.4753 -0.3728 -0.7160
  514ACTN    O1 5136   6.920   1.696   3.364  0.0453  0.6124 -0.3992
  514ACTN    C1 5137   7.016   1.527   3.233  0.0544  0.1181 -0.1208
  514ACTN    H1 5138   6.939   1.460   3.196 -1.0625  0.0885  2.1739
  514ACTN    H2 5139   7.054   1.486   3.327  0.4010 -3.0043 -1.5611
  514ACTN    H3 5140   7.091   1.535   3.154 -0.6748 -0.0952 -0.8444
  515ACTN    H6 5141   2.266   4.079   2.346  3.3671 -0.3930  1.7256
  515ACTN    C3 5142   2.311   4.095   2.248 -0.2437  0.2994  0.0985
  515ACTN    H4 5143   2.379   4.179   2.264 -1.1556  0.7929  1.5105
  515ACTN    H5 5144   2.233   4.131   2.181 -2.1555  0.0480  2.1401
  515ACTN    C2 5145   2.381   3.979   2.195  0.0257  0.1693  0.1491
  515ACTN    O1 5146   2.480   3.942   2.261  0.0739  0.4388 -0.4127
  515ACTN    C1 5147   2.324   3.915   2.076  0.2214  0.5433  0.2802
  515ACTN    H1 5148   2.312   3.992   1.999  1.5680  0.4053 -0.0732
  515ACTN    H2 5149   2.223   3.876   2.089  0.1723 -0.3293 -2.3627
  515ACTN    H3 5150   2.388   3.836   2.038 -1.6378 -0.5470 -0.6322
  516ACTN    H6 5151   5.674   4.630   2.259  1.2176 -0.8405  0.7684
  516ACTN    C3 5152   5.727   4.688   2.335  0.0853  0.2644  0.7243
  516ACTN    H4 5153   5.785   4.772   2.296 -0.1005  0.0760  0.0298
  516ACTN    H5 5154   5.801   4.618   2.370  0.2174  1.0732  2.0886
  516ACTN    C2 5155   5.628   4.739   2.429 -1.3390 -0.5747  0.0739
  516ACTN    O1 5156   5.565   4.837   2.401 -0.0196  0.1065 -0.0562
  516ACTN    C1 5157   5.629   4.683   2.568 -0.0526 -0.7107 -0.0327
  516ACTN    H1 5158   5.732   4.689   2.603  0.0434  1.0827 -0.5441
  516ACTN    H2 5159   5.589   4.582   2.575 -1.3518 -0.0941  1.8398
  516ACTN    H3 5160   5.570   4.745   2.636  1.8382  1.7241 -0.5598
  517ACTN    H6 5161   2.319   6.456   5.081 -0.6167 -0.1521  1.4175
  517ACTN    C3 5162   2.425   6.430   5.074 -0.3811  1.0016  0.5411
  517ACTN    H4 5163   2.433   6.382   4.976  0.9881  0.7806  0.7543
  517ACTN    H5 5164   2.490   6.518   5.074 -1.0069  1.4815 -0.5896
  517ACTN    C2 5165   2.469   6.342   5.186 -0.7623  0.3703 -0.3349
  517ACTN    O1 5166   2.465   6.394   5.296  0.7144 -0.0607  0.2397
  517ACTN    C1 5167   2.546   6.214   5.164  0.0520  0.1069  0.2719
  517ACTN    H1 5168   2.468   6.141   5.183 -0.4847  0.9506  1.4433
  517ACTN    H2 5169   2.625   6.178   5.231 -0.8326 -2.7319 -0.1742
  517ACTN    H3 5170   2.583   6.203   5.062  0.7292  0.2150  0.4981
  518ACTN    H6 5171   1.208   1.456   1.193 -1.4526  0.7191  0.3050
  518ACTN    C3 5172   1.168   1.368   1.242  0.0952  0.1154  0.5051
  518ACTN    H4 5173   1.125   1.403   1.337 -1.8203  0.7262 -0.5548
  518ACTN    H5 5174   1.085   1.333   1.181  1.5266 -1.8458 -0.3605
  518ACTN    C2 5175   1.255   1.252   1.260  0.2166  0.2488 -0.7121
  518ACTN    O1 5176   1.382   1.265   1.265  0.6116  0.0926 -0.0716
  518ACTN    C1 5177   1.196   1.124   1.306 -0.5639  0.0276 -0.2079
  518ACTN    H1 5178   1.153   1.148   1.403 -2.1279  0.2433 -0.9180
  518ACTN    H2 5179   1.275   1.050   1.316 -1.3059 -0.7138  0.3093
  518ACTN    H3 5180   1.116   1.092   1.238  1.0277 -0.2201 -2.0074
  519ACTN    H6 5181   1.014   3.075   4.139  1.0837  0.6647  3.3363
  519ACTN    C3 5182   1.062   2.988   4.094 -0.8089  1.2023  0.0832
  519ACTN    H4 5183   1.138   3.017   4.021 -1.3767  0.2237 -0.8957
  519ACTN    H5 5184   1.108   2.948   4.184  1.2213  1.8878 -0.6132
  519ACTN    C2 5185   0.953   2.896   4.042 -0.0632 -0.6984 -0.1119
  519ACTN    O1 5186   0.915   2.899   3.930 -0.2398 -0.0567 -0.1908
  519ACTN    C1 5187   0.861   2.821   4.137 -0.4038 -0.8371  0.2370
  519ACTN    H1 5188   0.862   2.717   4.102  0.1490  0.0436 -2.5199
  519ACTN    H2 5189   0.765   2.871   4.130  1.0724  2.3493  1.8906
  519ACTN    H3 5190   0.890   2.827   4.242  2.4389  1.1195 -0.5938
  520ACTN    H6 5191   1.407   7.226   3.186  0.5223 -0.4344 -0.2771
  520ACTN    C3 5192   1.395   7.212   3.079 -0.7608 -0.2917 -0.1544
  520ACTN    H4 5193   1.327   7.130   3.058  0.5438 -1.1462 -1.1428
  520ACTN    H5 5194   1.342   7.302   3.045 -1.2254 -0.3574  0.3910
  520ACTN    C2 5195   1.529   7.199   3.008 -0.4966 -0.5607 -0.5084
  520ACTN    O1 5196   1.623   7.253   3.064 -0.4920 -0.0683 -0.8447
  520ACTN    C1 5197   1.561   7.097   2.904 -0.0841 -0.6364 -0.0452
  520ACTN    H1 5198   1.649   7.120   2.844 -1.0692  0.7741 -0.9901
  520ACTN    H2 5199   1.478   7.083   2.836 -0.0446  1.9900 -0.6986
  520ACTN    H3 5200   1.580   6.999   2.947  0.5132 -0.0978  0.9546
  521ACTN    H6 5201   5.325   3.411   0.214 -0.3769  0.7297 -0.0717
  521ACTN    C3 5202   5.244   3.445   0.279  0.1003  0.6797  0.5463
  521ACTN    H4 5203   5.262   3.551   0.299 -0.7547  0.7305  1.0812
  521ACTN    H5 5204   5.154   3.431   0.221 -0.1937 -0.0563  1.1660
  521ACTN    C2 5205   5.218   3.372   0.404 -0.9570 -0.3039 -0.3624
  521ACTN    O1 5206   5.132   3.410   0.480  0.1836  0.4983  0.5591
  521ACTN    C1 5207   5.305   3.251   0.431 -0.1004  0.8931  0.0640
  521ACTN    H1 5208   5.266   3.162   0.381 -0.3226  1.6998 -1.2383
  521ACTN    H2 5209   5.312   3.231   0.538 -0.2487 -1.2384 -0.2995
  521ACTN    H3 5210   5.403   3.273   0.389  0.9287  0.8686  2.4256
  522ACTN    H6 5211   2.699   3.606   7.283  0.1318 -0.8488  1.3893
  522ACTN    C3 5212   2.591   3.612   7.292 -0.0022 -1.0261 -0.0545
  522ACTN    H4 5213   2.541   3.708   7.291 -1.4191 -1.7291  1.3779
  522ACTN    H5 5214   2.558   3.571   7.387 -0.7301 -3.2947 -1.2429
  522ACTN    C2 5215   2.519   3.520   7.192 -1.1188 -0.0408  0.2864
  522ACTN    O1 5216   2.414   3.473   7.225  0.5280  0.6077 -0.0601
  522ACTN    C1 5217   2.573   3.503   7.053 -0.0967 -0.2551  0.0402
  522ACTN    H1 5218   2.681   3.491   7.063  0.3698  0.8479 -3.1681
  522ACTN    H2 5219   2.551   3.586   6.986 -4.2669  0.6069  2.3337
  522ACTN    H3 5220   2.540   3.408   7.012 -0.7629  0.1543 -0.3702
  523ACTN    H6 5221   2.746   5.798   5.700  0.7278 -0.8284 -0.7118
  523ACTN    C3 5222   2.793   5.890   5.665  0.3684 -0.4383 -0.1722
  523ACTN    H4 5223   2.731   5.976   5.690  1.1409  0.8000 -2.3238
  523ACTN    H5 5224   2.887   5.894   5.720  0.0376 -1.7841  0.4945
  523ACTN    C2 5225   2.790   5.862   5.520  1.1291  0.2827 -0.1403
  523ACTN    O1 5226   2.858   5.771   5.480 -0.0497  0.0796 -0.1291
  523ACTN    C1 5227   2.685   5.927   5.439  0.5764 -0.7481 -0.2260
  523ACTN    H1 5228   2.587   5.882   5.452  0.0151  0.9639  1.8313
  523ACTN    H2 5229   2.707   5.910   5.334  2.8729  0.9471 -0.0567
  523ACTN    H3 5230   2.680   6.033   5.462 -0.6103 -1.0346  0.8840
  524ACTN    H6 5231   2.843   6.713   2.549 -0.8725  0.0151 -1.1186
  524ACTN    C3 5232   2.858   6.818   2.573  0.0498 -0.3580 -0.0548
  524ACTN    H4 5233   2.947   6.861   2.527 -1.9622  2.6064 -1.3082
  524ACTN    H5 5234   2.779   6.872   2.521 -1.3885 -1.7137  0.6650
  524ACTN    C2 5235   2.860   6.838   2.723 -0.8381  0.8072 -0.0301
  524ACTN    O1 5236   2.923   6.756   2.789 -0.0489  0.4617  0.2230
  524ACTN    C1 5237   2.847   6.961   2.798 -0.0425 -0.2812 -0.1435
  524ACTN    H1 5238   2.741   6.984   2.786  0.7191  3.3258 -0.5549
  524ACTN    H2 5239   2.905   7.047   2.764 -0.3951  0.1674  0.3836
  524ACTN    H3 5240   2.862   6.936   2.903 -0.5722  1.1721  0.2919
  525ACTN    H6 5241   3.666   2.160   3.718 -1.4015  0.0520  2.3042
  525ACTN    C3 5242   3.607   2.243   3.679 -0.6353 -0.4593 -0.0461
  525ACTN    H4 5243   3.550   2.296   3.755 -1.0574  0.7135 -1.1687
  525ACTN    H5 5244   3.679   2.316   3.643 -0.5680  0.0177  1.0141
  525ACTN    C2 5245   3.509   2.206   3.571 -0.0215 -0.1938 -0.0240
  525ACTN    O1 5246   3.486   2.093   3.544  0.4675  0.2381  0.6192
  525ACTN    C1 5247   3.423   2.312   3.503 -0.7280  0.0298  0.4578
  525ACTN    H1 5248   3.317   2.315   3.531 -1.4460 -3.1584 -1.6651
  525ACTN    H2 5249   3.417   2.309   3.394  1.0685  1.3097  0.3163
  525ACTN    H3 5250   3.462   2.407   3.540 -0.9673  1.0440 -1.8134
  526ACTN    H6 5251   1.351   0.067   5.031  0.0317  1.2209 -1.7231
  526ACTN    C3 5252   1.401   0.145   5.088 -0.3912 -0.0592  0.4248
  526ACTN    H4 5253   1.430   0.108   5.187  2.2616  0.8780  0.0226
  526ACTN    H5 5254   1.492   0.177   5.037 -0.5635 -0.4857 -0.1496
  526ACTN    C2 5255   1.310   0.261   5.096  0.3209 -0.0179 -0.1483
  526ACTN    O1 5256   1.300   0.332   4.999  0.9190 -0.1345  0.2750
  526ACTN    C1 5257   1.215   0.267   5.212  0.2652 -0.0122  0.8915
  526ACTN    H1 5258   1.237   0.357   5.270 -2.1034  2.0045 -1.2073
  526ACTN    H2 5259   1.226   0.182   5.280 -1.1995 -0.3365  0.7459
  526ACTN    H3 5260   1.111   0.269   5.178  0.1180  0.1749  1.3476
  527ACTN    H6 5261   1.821   3.079   4.768 -1.0756  0.8983  1.0955
  527ACTN    C3 5262   1.918   3.096   4.815 -0.1225  0.0861 -0.5362
  527ACTN    H4 5263   1.976   3.150   4.740  1.2491 -1.4733 -0.6484
  527ACTN    H5 5264   1.897   3.149   4.908 -0.4126 -0.7844 -0.1019
  527ACTN    C2 5265   2.001   2.972   4.831 -0.3989 -0.7799  0.2614
  527ACTN    O1 5266   1.960   2.859   4.807 -0.5727  0.4881 -0.4609
  527ACTN    C1 5267   2.148   2.996   4.862 -0.0430 -0.1856  0.0883
  527ACTN    H1 5268   2.212   2.957   4.782  0.4957 -0.0056  0.4297
  527ACTN    H2 5269   2.177   2.939   4.949 -0.7511  0.7151  0.9291
  527ACTN    H3 5270   2.170   3.101   4.883 -1.1351 -0.5346  3.1500
  528ACTN    H6 5271   0.138   2.631   1.618  1.0071 -0.3697  0.4980
  528ACTN    C3 5272   0.169   2.561   1.541 -0.6866 -0.1469 -0.4253
  528ACTN    H4 5273   0.125   2.464   1.562 -0.7058  0.4735  2.6072
  528ACTN    H5 5274   0.116   2.591   1.451  0.0172 -0.8059 -1.0771
  528ACTN    C2 5275   0.316   2.558   1.512 -0.2906 -0.5982 -0.5188
  528ACTN    O1 5276   0.377   2.646   1.578  0.3435  0.2244  0.3706
  528ACTN    C1 5277   0.367   2.493   1.390  0.3024  0.0566 -0.7094
  528ACTN    H1 5278   0.324   2.393   1.391  0.2283  0.0903  1.1478
  528ACTN    H2 5279   0.475   2.488   1.379  0.5215 -1.6694  1.8937
  528ACTN    H3 5280   0.332   2.551   1.305 -2.0727 -1.2814 -0.7110
  529ACTN    H6 5281   2.761   6.239   3.518 -1.0562 -0.5941 -0.2904
  529ACTN    C3 5282   2.748   6.197   3.618  0.0480 -0.1199  0.0568
  529ACTN    H4 5283   2.659   6.135   3.614  0.0542 -0.2870  1.9681
  529ACTN    H5 5284   2.834   6.130   3.609  0.2478  0.1671 -0.1742
  529ACTN    C2 5285   2.761   6.308   3.720 -0.2027  0.4102 -0.0214
  529ACTN    O1 5286   2.662   6.331   3.790  0.0032 -0.4873  0.6959
  529ACTN    C1 5287   2.896   6.372   3.730  0.0018 -0.5521  0.5762
  529ACTN    H1 5288   2.980   6.305   3.749  0.5744 -0.4369 -1.4350
  529ACTN    H2 5289   2.893   6.457   3.799 -2.2137 -0.0720 -0.0673
  529ACTN    H3 5290   2.912   6.419   3.633 -0.3373 -1.0286  0.2876
  530ACTN    H6 5291   6.684   0.367   4.283 -0.5405 -2.9306  0.3023
  530ACTN    C3 5292   6.703   0.343   4.179 -0.3009  0.4706 -0.4793
  530ACTN    H4 5293   6.796   0.286   4.177 -0.6842 -0.1992  0.5063
  530ACTN    H5 5294   6.623   0.286   4.132  1.9646 -2.9820 -0.3621
  530ACTN    C2 5295   6.715   0.476   4.099  0.1835 -0.7140 -0.7338
  530ACTN    O1 5296   6.629   0.565   4.107 -0.5828 -0.3069  0.2129
  530ACTN    C1 5297   6.828   0.492   4.023 -0.3947 -0.2033  0.7338
  530ACTN    H1 5298   6.903   0.554   4.071 -1.9354  0.9207  1.7100
  530ACTN    H2 5299   6.817   0.533   3.922 -0.4393 -2.8288 -0.3750
  530ACTN    H3 5300   6.870   0.393   4.007 -1.0884 -0.1894 -1.3705
  531ACTN    H6 5301   0.392   1.779   5.800  1.7767  2.8940  0.6741
  531ACTN    C3 5302   0.403   1.740   5.901 -1.0991  0.2494  0.0471
  531ACTN    H4 5303   0.387   1.632   5.900  1.6746 -0.2609  2.8248
  531ACTN    H5 5304   0.504   1.745   5.943 -1.8880 -2.5913  2.4318
  531ACTN    C2 5305   0.308   1.823   5.982  0.4145  0.4098 -0.3758
  531ACTN    O1 5306   0.193   1.829   5.943  0.6121 -0.0442  0.7176
  531ACTN    C1 5307   0.356   1.908   6.094  0.3091 -0.2247  0.2517
  531ACTN    H1 5308   0.465   1.912   6.089  0.2099  0.2051 -2.2600
  531ACTN    H2 5309   0.319   1.878   6.192  0.1769  1.0540  0.6055
  531ACTN    H3 5310   0.323   2.012   6.087 -2.1854 -0.9653  0.7496
  532ACTN    H6 5311   3.724   3.627   6.725 -0.2785 -0.4387  0.5681
  532ACTN    C3 5312   3.651   3.578   6.660 -0.2101  0.6838 -0.3835
  532ACTN    H4 5313   3.710   3.574   6.569  0.7615  1.9264  0.1783
  532ACTN    H5 5314   3.560   3.636   6.641 -0.5444  0.0556 -0.7142
  532ACTN    C2 5315   3.617   3.437   6.706 -0.0904  0.3984 -0.4387
  532ACTN    O1 5316   3.708   3.359   6.713 -0.3016  0.5962  0.1538
  532ACTN    C1 5317   3.480   3.397   6.758  0.5460 -0.2352  0.2489
  532ACTN    H1 5318   3.396   3.445   6.707  0.4357  0.2686  0.9053
  532ACTN    H2 5319   3.480   3.417   6.866  1.1584 -1.0281  0.3985
  532ACTN    H3 5320   3.458   3.291   6.745  1.5171 -0.2703 -1.1410
  533ACTN    H6 5321   7.157   4.593   4.533 -1.4350  2.2602  2.4322
  533ACTN    C3 5322   7.070   4.529   4.538  0.2043 -0.2788  0.1881
  533ACTN    H4 5323   6.992   4.576   4.478 -0.9091 -0.7423  1.2401
  533ACTN    H5 5324   7.092   4.427   4.509  0.3374 -1.0245  2.7663
  533ACTN    C2 5325   7.023   4.536   4.685 -0.5577  0.1934 -0.1708
  533ACTN    O1 5326   7.095   4.472   4.768 -0.6717  0.0966 -0.2854
  533ACTN    C1 5327   6.918   4.619   4.735 -0.4182  0.2998 -0.2459
  533ACTN    H1 5328   6.951   4.664   4.829 -0.1853  1.0597 -0.6957
  533ACTN    H2 5329   6.824   4.568   4.758  0.1072 -0.9556 -0.8131
  533ACTN    H3 5330   6.895   4.706   4.673 -0.3180 -0.3654 -1.2249
  534ACTN    H6 5331   6.606   3.714   4.063 -1.0721 -0.9126  1.5708
  534ACTN    C3 5332   6.518   3.772   4.036  0.3684  0.7253  0.2232
  534ACTN    H4 5333   6.461   3.792   4.127 -2.6363  0.9380 -1.6220
  534ACTN    H5 5334   6.544   3.861   3.979  2.9078  0.7688  1.4021
  534ACTN    C2 5335   6.421   3.691   3.960  0.5121  0.1781  0.6177
  534ACTN    O1 5336   6.403   3.716   3.842  0.4082 -0.5782 -0.5891
  534ACTN    C1 5337   6.338   3.587   4.031 -0.2242  0.9042 -0.4344
  534ACTN    H1 5338   6.384   3.488   4.028  0.0744  0.8646  2.8273
  534ACTN    H2 5339   6.246   3.565   3.977 -1.2656 -0.5111  1.8449
  534ACTN    H3 5340   6.309   3.615   4.133 -1.3896 -0.7413 -0.3034
  535ACTN    H6 5341   3.224   6.915   4.811 -1.7136  0.5485  0.5533
  535ACTN    C3 5342   3.184   6.876   4.717 -0.4553 -0.0740  0.2651
  535ACTN    H4 5343   3.239   6.794   4.671 -0.3738 -0.1867  0.5580
  535ACTN    H5 5344   3.086   6.846   4.754 -0.3674 -2.5715 -1.3780
  535ACTN    C2 5345   3.161   6.992   4.629 -0.1921  0.7294 -0.5456
  535ACTN    O1 5346   3.119   6.982   4.515  0.2528  0.0874  0.0694
  535ACTN    C1 5347   3.207   7.124   4.678  0.2074 -0.0144  0.4449
  535ACTN    H1 5348   3.183   7.209   4.613 -1.2795  1.3910  2.7504
  535ACTN    H2 5349   3.313   7.125   4.703  1.0240 -1.0843 -2.6720
  535ACTN    H3 5350   3.144   7.145   4.764  0.8254  1.2895  0.6044
  536ACTN    H6 5351   2.345   4.882   2.939 -0.2720 -1.4133  1.0387
  536ACTN    C3 5352   2.406   4.877   3.029 -0.0862 -0.0175  0.9989
  536ACTN    H4 5353   2.383   4.950   3.108  2.8570  1.0693  0.9404
  536ACTN    H5 5354   2.392   4.778   3.073  2.9044  0.2132  2.6201
  536ACTN    C2 5355   2.551   4.901   2.986  0.8020  0.5007  0.0399
  536ACTN    O1 5356   2.584   4.980   2.900 -0.3687  0.3184 -0.2353
  536ACTN    C1 5357   2.651   4.852   3.082  0.0692 -0.2318 -0.7665
  536ACTN    H1 5358   2.714   4.934   3.115  2.0291 -2.0483  0.0767
  536ACTN    H2 5359   2.713   4.776   3.034  1.5798 -1.3883  2.8864
  536ACTN    H3 5360   2.616   4.812   3.177 -1.7175  3.6948  0.3315
  537ACTN    H6 5361   1.988   5.413   4.190 -0.5187 -0.1195 -1.2877
  537ACTN    C3 5362   2.090   5.391   4.160 -0.1823 -0.0083 -0.2400
  537ACTN    H4 5363   2.157   5.446   4.226  1.4623 -3.4099  1.0598
  537ACTN    H5 5364   2.100   5.420   4.055 -2.7746 -1.2791 -0.8873
  537ACTN    C2 5365   2.091   5.239   4.167  0.1590  0.1537  0.1323
  537ACTN    O1 5366   2.182   5.173   4.220  0.6284 -0.5627 -0.2987
  537ACTN    C1 5367   1.984   5.174   4.088  0.0137 -0.4719 -0.6304
  537ACTN    H1 5368   1.949   5.239   4.008 -1.1254 -1.0965 -0.6438
  537ACTN    H2 5369   1.906   5.150   4.160  0.2198  1.1028  0.1591
  537ACTN    H3 5370   2.012   5.083   4.035 -1.8191 -1.9268  0.8110
  538ACTN    H6 5371   4.648   4.531   0.507  3.7577  1.4668 -0.5178
  538ACTN    C3 5372   4.623   4.580   0.413  0.5030 -0.4184 -0.7149
  538ACTN    H4 5373   4.651   4.685   0.418 -0.4506 -0.1861  0.0321
  538ACTN    H5 5374   4.672   4.541   0.324  0.3462 -0.5866 -0.7273
  538ACTN    C2 5375   4.476   4.585   0.380 -0.1791 -0.0862  0.3744
  538ACTN    O1 5376   4.411   4.681   0.423 -0.1749  0.2699 -0.2230
  538ACTN    C1 5377   4.422   4.458   0.328 -0.0702 -0.4124 -0.1371
  538ACTN    H1 5378   4.501   4.387   0.304  0.8423  0.6030 -0.1418
  538ACTN    H2 5379   4.361   4.464   0.237 -0.0537 -1.6646 -0.2397
  538ACTN    H3 5380   4.359   4.408   0.401 -2.8712 -0.2679 -2.3682
  539ACTN    H6 5381   1.104   0.540   4.194 -1.5566  0.1944  0.2257
  539ACTN    C3 5382   1.084   0.445   4.244 -0.1696 -0.3676 -0.2737
  539ACTN    H4 5383   1.167   0.377   4.224 -0.3766 -0.8774  0.5354
  539ACTN    H5 5384   1.079   0.462   4.352 -2.7804  0.5033 -0.5108
  539ACTN    C2 5385   0.953   0.392   4.200 -0.2569 -0.2174 -0.3419
  539ACTN    O1 5386   0.897   0.306   4.265 -0.4721 -0.2591  0.1534
  539ACTN    C1 5387   0.895   0.462   4.084  0.8305  0.7305  0.1584
  539ACTN    H1 5388   0.801   0.413   4.059  2.1840 -2.7964  1.5466
  539ACTN    H2 5389   0.963   0.460   3.999  1.3218  0.0893  0.5600
  539ACTN    H3 5390   0.866   0.562   4.116 -2.2729 -1.2604  4.1607
  540ACTN    H6 5391   1.663   5.744   7.087  0.3428 -1.3848 -1.0043
  540ACTN    C3 5392   1.680   5.679   7.172  0.3001 -0.1206 -0.0025
  540ACTN    H4 5393   1.699   5.743   7.258  0.3209 -0.6843  0.4131
  540ACTN    H5 5394   1.597   5.609   7.184 -0.2904  0.0850 -2.6673
  540ACTN    C2 5395   1.802   5.602   7.132  0.4360 -0.0519 -0.3051
  540ACTN    O1 5396   1.914   5.653   7.169 -0.0212 -0.1503 -0.1030
  540ACTN    C1 5397   1.789   5.522   7.004  0.0437 -0.1651 -0.8211
  540ACTN    H1 5398   1.694   5.538   6.954 -1.1539  1.2570  1.7941
  540ACTN    H2 5399   1.794   5.414   7.018  1.6826 -0.1982 -1.5193
  540ACTN    H3 5400   1.869   5.546   6.935 -1.2190  0.2070 -2.1715
  541ACTN    H6 5401   3.817   3.777   7.069  3.5980 -0.1395 -0.0946
  541ACTN    C3 5402   3.817   3.860   7.140 -0.1678 -0.3480  0.2794
  541ACTN    H4 5403   3.719   3.870   7.185 -0.1850 -2.4212  0.7527
  541ACTN    H5 5404   3.894   3.844   7.215 -1.3167 -1.0300  1.3294
  541ACTN    C2 5405   3.848   3.993   7.076  0.3027  0.3573  0.0459
  541ACTN    O1 5406   3.830   4.006   6.959  0.7240  0.2403 -0.6190
  541ACTN    C1 5407   3.848   4.124   7.161  0.7432 -0.0062 -0.7882
  541ACTN    H1 5408   3.771   4.183   7.112  0.1202  0.0987  0.2994
  541ACTN    H2 5409   3.941   4.181   7.163 -0.3240  1.7568 -0.0126
  541ACTN    H3 5410   3.812   4.103   7.262  1.6662 -0.0671 -0.4623
  542ACTN    H6 5411   0.489   2.021   1.688 -0.7780 -0.3227 -1.4766
  542ACTN    C3 5412   0.453   2.124   1.684  0.5176  0.2176  0.1714
  542ACTN    H4 5413   0.393   2.147   1.595  3.1488 -1.6929 -2.2026
  542ACTN    H5 5414   0.389   2.132   1.771 -1.1557  1.6328 -1.1529
  542ACTN    C2 5415   0.566   2.219   1.693 -0.4247  0.5200 -0.1159
  542ACTN    O1 5416   0.679   2.180   1.671  0.2871 -0.7380  0.0682
  542ACTN    C1 5417   0.547   2.360   1.748 -0.2154  0.3765 -0.0732
  542ACTN    H1 5418   0.578   2.439   1.679  2.4630  0.1731  0.8207
  542ACTN    H2 5419   0.594   2.366   1.846 -1.5359 -1.4031  0.6852
  542ACTN    H3 5420   0.440   2.373   1.763 -0.0978  0.0195  1.0803
  543ACTN    H6 5421   5.402   5.853   0.983 -1.4792  0.6499  1.0413
  543ACTN    C3 5422   5.421   5.769   1.049 -0.1010 -0.1006 -0.2776
  543ACTN    H4 5423   5.357   5.686   1.020 -0.9806 -0.4591  2.4812
  543ACTN    H5 5424   5.525   5.738   1.042 -0.5278 -1.4775 -0.8123
  543ACTN    C2 5425   5.370   5.808   1.183  0.0444 -0.4340 -0.1929
  543ACTN    O1 5426   5.389   5.926   1.222 -0.4875 -0.8298  0.0945
  543ACTN    C1 5427   5.341   5.701   1.281 -0.2343 -0.0426  0.4993
  543ACTN    H1 5428   5.258   5.731   1.346  0.0879  2.1663 -0.0875
  543ACTN    H2 5429   5.430   5.671   1.337  0.7947 -1.2057 -1.7239
  543ACTN    H3 5430   5.309   5.607   1.236  1.7083  0.2904 -1.6477
  544ACTN    H6 5431   2.504   6.778   7.009  0.7962  0.8549  3.3956
  544ACTN    C3 5432   2.416   6.724   7.044 -0.3158  0.2561 -0.0617
  544ACTN    H4 5433   2.436   6.733   7.151  0.9082 -1.3220 -0.1490
  544ACTN    H5 5434   2.316   6.761   7.023 -0.6776 -0.1505  0.9136
  544ACTN    C2 5435   2.423   6.577   7.002  0.1177  0.6592 -0.5651
  544ACTN    O1 5436   2.514   6.517   7.057 -0.3056  0.6914  0.7276
  544ACTN    C1 5437   2.357   6.525   6.874 -0.7139  0.0425 -0.1125
  544ACTN    H1 5438   2.346   6.417   6.873  1.7549 -0.2362 -1.8540
  544ACTN    H2 5439   2.404   6.559   6.781 -0.2466  0.7375  0.3696
  544ACTN    H3 5440   2.259   6.572   6.881 -0.1092  0.9846  2.5023
  545ACTN    H6 5441   6.705   7.135   6.179 -0.3199  0.3515 -0.0069
  545ACTN    C3 5442   6.637   7.069   6.124 -0.6263  0.5552  0.1210
  545ACTN    H4 5443   6.576   7.016   6.197  0.2828 -3.2210 -1.7364
  545ACTN    H5 5444   6.566   7.123   6.062  0.9301  0.8375 -1.4564
  545ACTN    C2 5445   6.736   6.975   6.057 -0.1257 -0.4296 -0.4113
  545ACTN    O1 5446   6.803   7.017   5.961  0.5370 -0.3392 -0.2742
  545ACTN    C1 5447   6.722   6.827   6.085 -0.5196 -0.0920  0.4308
  545ACTN    H1 5448   6.789   6.815   6.170  0.7530 -0.6630 -0.6292
  545ACTN    H2 5449   6.760   6.761   6.007 -1.0948 -0.0502  0.1178
  545ACTN    H3 5450   6.620   6.795   6.108  0.1715 -1.3836  1.8280
  546ACTN    H6 5451   0.279   2.223   2.924  0.3987 -1.8086 -0.9734
  546ACTN    C3 5452   0.249   2.292   2.845  0.3285  0.5062  1.0198
  546ACTN    H4 5453   0.313   2.290   2.758  0.2701 -2.7090  0.9799
  546ACTN    H5 5454   0.151   2.268   2.804 -0.2870  2.5422  1.2277
  546ACTN    C2 5455   0.243   2.419   2.920  0.7992 -0.0066  0.4196
  546ACTN    O1 5456   0.354   2.461   2.952  0.0779  0.2338  0.3057
  546ACTN    C1 5457   0.114   2.449   3.000 -0.4888  0.0853 -0.3717
  546ACTN    H1 5458   0.128   2.493   3.098  1.3132 -0.8765 -0.1745
  546ACTN    H2 5459   0.061   2.357   3.024 -4.4020  2.6617  1.3049
  546ACTN    H3 5460   0.049   2.509   2.936 -0.4993  0.5366  0.0646
  547ACTN    H6 5461   4.158   1.929   0.348 -0.2152 -0.4347  1.6041
  547ACTN    C3 5462   4.091   2.012   0.372  0.1335  0.1684  0.5257
  547ACTN    H4 5463   4.140   2.107   0.351  0.6597  0.2890  2.2480
  547ACTN    H5 5464   3.999   2.001   0.315  0.0996 -1.0656  0.8125
  547ACTN    C2 5465   4.058   2.021   0.516 -1.1187  0.3354  0.3150
  547ACTN    O1 5466   3.943   2.031   0.549 -0.3025 -0.3245  0.1011
  547ACTN    C1 5467   4.170   2.010   0.617 -0.2523  0.1720 -0.2797
  547ACTN    H1 5468   4.182   2.098   0.682  0.9039 -1.9684  2.5113
  547ACTN    H2 5469   4.267   1.998   0.570 -0.7183  1.0287 -1.4963
  547ACTN    H3 5470   4.157   1.921   0.679  4.6413 -0.1984  0.4015
  548ACTN    H6 5471   2.467   0.751   4.051 -0.9331  0.0096 -0.6536
  548ACTN    C3 5472   2.465   0.727   3.944 -0.2549  0.3554 -0.7456
  548ACTN    H4 5473   2.416   0.806   3.887  0.5128  0.4156 -1.3246
  548ACTN    H5 5474   2.562   0.716   3.895 -0.7833  0.3321 -1.7986
  548ACTN    C2 5475   2.370   0.613   3.935 -0.5699  0.2009  0.6138
  548ACTN    O1 5476   2.407   0.522   3.862  0.6869  0.0509 -0.8063
  548ACTN    C1 5477   2.226   0.616   3.958 -0.3203  0.7295 -0.3325
  548ACTN    H1 5478   2.166   0.629   3.868  0.4109  1.1391 -0.7614
  548ACTN    H2 5479   2.211   0.702   4.023 -1.2931 -0.4549  1.0672
  548ACTN    H3 5480   2.186   0.530   4.013  2.0641  0.7047  1.4213
  549ACTN    H6 5481   2.899   4.772   4.201  2.2641 -0.4986 -0.1767
  549ACTN    C3 5482   2.884   4.666   4.181 -0.4081 -0.1741 -0.1091
  549ACTN    H4 5483   2.963   4.628   4.117 -0.0761  1.8410 -0.9187
  549ACTN    H5 5484   2.794   4.657   4.120 -0.5756 -0.3687  0.1635
  549ACTN    C2 5485   2.862   4.598   4.311  0.6263  0.2514 -0.3694
  549ACTN    O1 5486   2.958   4.579   4.385 -0.2036 -0.2318  0.0624
  549ACTN    C1 5487   2.719   4.546   4.327 -0.8079 -0.2683  0.1580
  549ACTN    H1 5488   2.719   4.507   4.429 -1.0957  1.5716  0.8844
  549ACTN    H2 5489   2.695   4.469   4.254 -1.1240  0.0005 -0.0258
  549ACTN    H3 5490   2.647   4.628   4.321  0.0671  0.6551  1.7610
  550ACTN    H6 5491   1.630   2.895   3.989 -1.4210  0.4575  0.2011
  550ACTN    C3 5492   1.584   2.835   4.069 -0.2577  0.6836  1.0460
  550ACTN    H4 5493   1.649   2.748   4.075 -2.1253 -0.7815  0.3281
  550ACTN    H5 5494   1.572   2.886   4.164 -1.7277 -0.5655  1.5484
  550ACTN    C2 5495   1.453   2.778   4.025 -0.2433 -0.2259 -0.3517
  550ACTN    O1 5496   1.391   2.698   4.093  1.1281  0.6034  0.7296
  550ACTN    C1 5497   1.406   2.833   3.892 -0.3692  0.2732  0.3742
  550ACTN    H1 5498   1.394   2.941   3.895 -0.2020  0.2536  3.3049
  550ACTN    H2 5499   1.308   2.798   3.861 -0.6958  0.9829  0.6050
  550ACTN    H3 5500   1.477   2.808   3.814  0.7800  2.0470  0.8189
  551ACTN    H6 5501   0.264   5.352   3.123  1.6593 -1.9780  1.4583
  551ACTN    C3 5502   0.171   5.296   3.126  0.1908  0.2231 -0.4063
  551ACTN    H4 5503   0.084   5.356   3.154 -0.1653 -0.2525 -0.4707
  551ACTN    H5 5504   0.149   5.257   3.027  1.0630  3.6233 -1.9960
  551ACTN    C2 5505   0.176   5.180   3.221  0.5554  0.6424  0.6112
  551ACTN    O1 5506   0.096   5.089   3.197 -0.2540  0.3745  0.9408
  551ACTN    C1 5507   0.278   5.170   3.330 -0.0140 -0.3785 -0.0207
  551ACTN    H1 5508   0.263   5.248   3.405  2.0912 -0.9443  1.0199
  551ACTN    H2 5509   0.375   5.177   3.282  1.3996 -0.8901  2.6398
  551ACTN    H3 5510   0.263   5.080   3.391  1.4362 -0.3508  0.4022
  552ACTN    H6 5511   3.319   4.799   2.179 -0.9509  2.5742 -2.0160
  552ACTN    C3 5512   3.253   4.719   2.147  0.9327 -0.0403  0.4251
  552ACTN    H4 5513   3.228   4.659   2.235 -1.3777  0.7885  0.3621
  552ACTN    H5 5514   3.163   4.764   2.104  0.0391 -2.2261 -0.0731
  552ACTN    C2 5515   3.320   4.636   2.046  0.2115  0.0370 -0.4990
  552ACTN    O1 5516   3.433   4.663   2.014 -0.2380 -0.3370 -0.1306
  552ACTN    C1 5517   3.249   4.510   2.012 -0.0544 -0.0993 -0.5026
  552ACTN    H1 5518   3.309   4.451   1.943  0.7592  2.2288 -1.8368
  552ACTN    H2 5519   3.151   4.539   1.973  0.4891  1.4036 -0.7591
  552ACTN    H3 5520   3.228   4.454   2.103 -1.5242 -0.7515 -1.2144
  553ACTN    H6 5521   3.001   4.563   2.973 -0.2317 -2.5160 -2.1825
  553ACTN    C3 5522   2.922   4.598   2.907 -0.2251  0.8984 -0.4970
  553ACTN    H4 5523   2.850   4.515   2.900  0.6730  0.2702 -2.5377
  553ACTN    H5 5524   2.871   4.680   2.957 -0.7676 -0.6461  1.5694
  553ACTN    C2 5525   2.965   4.640   2.771 -0.4878  0.1442 -0.1031
  553ACTN    O1 5526   2.938   4.570   2.675  0.3907  0.5105 -0.2737
  553ACTN    C1 5527   3.041   4.767   2.752  0.0681  0.5626  0.3032
  553ACTN    H1 5528   3.066   4.786   2.647 -0.7637  1.8367  0.3176
  553ACTN    H2 5529   3.135   4.777   2.805  0.2155 -0.9828  0.3468
  553ACTN    H3 5530   2.974   4.846   2.785  0.2489  0.2021  1.5296
  554ACTN    H6 5531   4.923   2.884   5.842  0.9522  0.1639 -0.3012
  554ACTN    C3 5532   4.938   2.777   5.853 -0.3591  0.0295  0.2241
  554ACTN    H4 5533   4.860   2.737   5.918 -0.6126 -2.4528 -1.5313
  554ACTN    H5 5534   5.035   2.767   5.902 -0.7705  0.7892  1.2110
  554ACTN    C2 5535   4.944   2.703   5.722  0.4443 -0.0672  0.3666
  554ACTN    O1 5536   4.942   2.582   5.725 -0.7161 -0.0848  0.2470
  554ACTN    C1 5537   4.941   2.771   5.589  0.0017 -0.4906 -0.2056
  554ACTN    H1 5538   5.012   2.729   5.517  0.2298 -1.4273  0.5488
  554ACTN    H2 5539   4.948   2.878   5.606 -1.2217 -0.2367 -1.2970
  554ACTN    H3 5540   4.841   2.751   5.551 -0.0986 -0.6521  0.1357
  555ACTN    H6 5541   5.537   4.944   2.738 -0.9105 -0.4094 -1.3304
  555ACTN    C3 5542   5.470   5.030   2.747  0.2757  0.4308 -0.3275
  555ACTN    H4 5543   5.391   5.016   2.674 -0.0918  0.2057  0.1106
  555ACTN    H5 5544   5.424   5.019   2.845  1.5715 -1.9162  0.0656
  555ACTN    C2 5545   5.531   5.159   2.713  0.1707  0.2171 -0.7432
  555ACTN    O1 5546   5.552   5.240   2.807 -0.5121 -0.2331 -0.5981
  555ACTN    C1 5547   5.581   5.183   2.576 -0.3986  0.4329  0.1222
  555ACTN    H1 5548   5.561   5.283   2.538 -4.1099 -0.1447  0.3806
  555ACTN    H2 5549   5.545   5.114   2.500 -0.9699  0.6049  0.2340
  555ACTN    H3 5550   5.688   5.163   2.576 -0.9545 -2.8299 -0.2201
  556ACTN    H6 5551   0.281   6.084   4.826 -0.0437 -0.0615 -0.2792
  556ACTN    C3 5552   0.356   6.058   4.901  0.3492  0.3950 -0.5087
  556ACTN    H4 5553   0.325   5.962   4.942 -0.8419  0.0090 -2.2166
  556ACTN    H5 5554   0.455   6.044   4.856  0.0851  1.1165 -1.3458
  556ACTN    C2 5555   0.372   6.171   5.004  0.7355 -0.6455  1.0371
  556ACTN    O1 5556   0.408   6.137   5.117 -0.2274 -0.1530  0.0108
  556ACTN    C1 5557   0.396   6.309   4.962 -0.1932 -0.2465  0.2990
  556ACTN    H1 5558   0.493   6.325   4.914 -0.2181 -1.8306 -0.3122
  556ACTN    H2 5559   0.373   6.367   5.051 -0.7495  1.0498 -0.6841
  556ACTN    H3 5560   0.322   6.335   4.887  0.9802  2.0379 -0.0977
  557ACTN    H6 5561   5.910   6.050   6.075  0.9638 -0.9580  1.5555
  557ACTN    C3 5562   5.837   6.090   6.145 -0.3448 -0.1745 -0.2111
  557ACTN    H4 5563   5.848   6.197   6.158  0.8103 -0.1759 -1.1516
  557ACTN    H5 5564   5.741   6.066   6.098 -0.9551  0.7059  0.5599
  557ACTN    C2 5565   5.853   6.017   6.273  0.3148  0.0915 -0.1772
  557ACTN    O1 5566   5.961   6.005   6.327 -0.1488  0.5936 -0.1759
  557ACTN    C1 5567   5.722   5.958   6.319  0.2517  0.5074 -0.2864
  557ACTN    H1 5568   5.640   6.009   6.267 -0.3332  1.3868  1.4408
  557ACTN    H2 5569   5.713   5.977   6.426 -0.4926 -0.9663 -0.0711
  557ACTN    H3 5570   5.712   5.853   6.292 -0.0540 -0.3876  3.0734
  558ACTN    H6 5571   0.516   7.203   3.832  1.2127  0.5838 -0.6720
  558ACTN    C3 5572   0.478   7.181   3.732  0.8140 -0.8199 -0.2184
  558ACTN    H4 5573   0.386   7.237   3.720  0.1319 -1.8551  0.1414
  558ACTN    H5 5574   0.462   7.074   3.721  1.2672 -1.0434  1.2008
  558ACTN    C2 5575   0.585   7.209   3.641 -0.4495  0.0022  0.1702
  558ACTN    O1 5576   0.660   7.114   3.606  0.7147  0.2628  0.1177
  558ACTN    C1 5577   0.609   7.345   3.581  0.6829  0.2132 -0.2061
  558ACTN    H1 5578   0.705   7.373   3.625  0.8910 -0.3070 -0.3156
  558ACTN    H2 5579   0.527   7.408   3.614  1.2109  0.2664  1.0256
  558ACTN    H3 5580   0.624   7.340   3.473  0.4157  0.3375 -0.2478
  559ACTN    H6 5581   4.509   3.029   6.679  0.6808 -1.5830  0.3539
  559ACTN    C3 5582   4.427   3.053   6.747  0.0639 -0.7553 -0.6769
  559ACTN    H4 5583   4.344   3.087   6.685  1.4523 -0.9610 -2.6913
  559ACTN    H5 5584   4.459   3.138   6.808 -0.3422 -0.4461 -0.8887
  559ACTN    C2 5585   4.398   2.946   6.842 -1.0684  0.3436 -0.5127
  559ACTN    O1 5586   4.297   2.958   6.913 -0.0517 -0.0842  0.2367
  559ACTN    C1 5587   4.496   2.827   6.840 -0.2529 -0.4825  0.6353
  559ACTN    H1 5588   4.574   2.839   6.764 -3.2262 -1.0266 -2.6405
  559ACTN    H2 5589   4.437   2.737   6.825 -0.7310 -0.1560  0.5324
  559ACTN    H3 5590   4.542   2.829   6.939  0.2091  0.3700  0.4138
  560ACTN    H6 5591   0.400   3.732   2.823  3.7842 -0.5498 -1.4690
  560ACTN    C3 5592   0.367   3.629   2.820  0.0257  0.4949  0.4299
  560ACTN    H4 5593   0.453   3.581   2.867 -1.6577 -1.7284  1.3105
  560ACTN    H5 5594   0.273   3.611   2.871  0.1548 -1.7109 -0.0241
  560ACTN    C2 5595   0.365   3.572   2.689 -0.4492 -0.1774 -0.2125
  560ACTN    O1 5596   0.421   3.631   2.600  0.1894  0.2871 -0.7987
  560ACTN    C1 5597   0.292   3.447   2.669 -0.6898 -0.0854  0.5123
  560ACTN    H1 5598   0.184   3.460   2.663 -0.9723 -2.2297  0.7718
  560ACTN    H2 5599   0.321   3.379   2.748 -0.2599  2.1626  2.3440
  560ACTN    H3 5600   0.318   3.410   2.570 -0.8578  1.7861 -0.2614
  561ACTN    H6 5601   1.986   0.290   4.516 -0.2064  1.2576 -0.8804
  561ACTN    C3 5602   1.881   0.272   4.540  0.1721 -0.3174 -0.3078
  561ACTN    H4 5603   1.878   0.175   4.590 -2.8391 -0.9822 -1.6665
  561ACTN    H5 5604   1.857   0.352   4.610 -0.2484 -0.2281 -0.5564
  561ACTN    C2 5605   1.791   0.276   4.417  0.0463  0.2158  0.0890
  561ACTN    O1 5606   1.719   0.178   4.387 -0.1155  0.6679  0.1259
  561ACTN    C1 5607   1.776   0.410   4.345 -0.2256 -0.2226  0.2973
  561ACTN    H1 5608   1.833   0.396   4.253  0.4555  1.3615  0.4601
  561ACTN    H2 5609   1.811   0.494   4.405 -1.3670  0.7764 -0.4117
  561ACTN    H3 5610   1.676   0.441   4.315  0.7707  1.6012 -1.3134
  562ACTN    H6 5611   0.091   4.123   1.102  1.9121  0.1809 -0.1886
  562ACTN    C3 5612   0.062   4.020   1.085 -0.1845  0.7407 -0.2461
  562ACTN    H4 5613   0.143   3.958   1.125 -0.7850  1.7181  2.5834
  562ACTN    H5 5614   0.052   4.006   0.977  0.5585 -0.6454 -0.1614
  562ACTN    C2 5615  -0.064   3.977   1.146  0.0571 -0.5105 -0.0130
  562ACTN    O1 5616  -0.151   4.058   1.177  0.1597 -0.2627 -0.2358
  562ACTN    C1 5617  -0.094   3.837   1.148  0.3803 -0.2047  0.2472
  562ACTN    H1 5618  -0.065   3.793   1.053 -1.4838  1.1543 -1.0054
  562ACTN    H2 5619  -0.200   3.820   1.164  0.0120  2.5824  0.9972
  562ACTN    H3 5620  -0.040   3.785   1.226  0.0695 -1.4004 -0.3306
  563ACTN    H6 5621   0.363   5.543   1.741  0.8255  1.3422  0.5107
  563ACTN    C3 5622   0.404   5.459   1.686 -0.5277  0.8232  0.2700
  563ACTN    H4 5623   0.374   5.459   1.581  0.6379 -4.5738 -0.2475
  563ACTN    H5 5624   0.511   5.476   1.697 -0.4666 -0.2396  1.4658
  563ACTN    C2 5625   0.376   5.327   1.753 -0.4515  0.2775 -0.3078
  563ACTN    O1 5626   0.262   5.288   1.761  0.7632  0.0270  0.3560
  563ACTN    C1 5627   0.485   5.257   1.826  0.0902  0.0902 -0.3032
  563ACTN    H1 5628   0.551   5.330   1.873 -0.8466  0.3514  0.6330
  563ACTN    H2 5629   0.549   5.210   1.752 -2.1028 -1.8800 -1.0043
  563ACTN    H3 5630   0.451   5.184   1.900  2.4379 -1.4881 -0.7455
  564ACTN    H6 5631   4.426   5.728   1.397  0.1012 -0.8412  0.0938
  564ACTN    C3 5632   4.408   5.647   1.326 -0.2111 -0.5330 -0.1833
  564ACTN    H4 5633   4.505   5.607   1.297  0.2631  0.9488 -0.6737
  564ACTN    H5 5634   4.355   5.566   1.376 -0.3741 -1.0594 -1.2030
  564ACTN    C2 5635   4.329   5.690   1.208  0.6031 -0.2171  0.3481
  564ACTN    O1 5636   4.306   5.806   1.190 -0.0042 -0.0995  0.3243
  564ACTN    C1 5637   4.304   5.585   1.109  0.4651 -0.1033 -0.5766
  564ACTN    H1 5638   4.355   5.609   1.016 -1.3910 -2.5275 -2.2833
  564ACTN    H2 5639   4.197   5.590   1.087 -0.0473  2.1683  2.0898
  564ACTN    H3 5640   4.320   5.486   1.153  2.3520  0.8974  1.0865
  565ACTN    H6 5641   0.173   0.040   3.985 -0.7107 -0.8031 -0.3626
  565ACTN    C3 5642   0.257  -0.001   3.928  0.1209  0.3293  0.0315
  565ACTN    H4 5643   0.293  -0.097   3.965 -0.3086 -0.1151 -0.6910
  565ACTN    H5 5644   0.221  -0.017   3.827  0.2894 -1.5940  0.2619
  565ACTN    C2 5645   0.360   0.100   3.942 -0.6563 -0.4065  0.5535
  565ACTN    O1 5646   0.429   0.141   3.848 -0.1047  0.1791 -0.3344
  565ACTN    C1 5647   0.398   0.129   4.080 -0.2684 -0.5329  0.0692
  565ACTN    H1 5648   0.329   0.196   4.131 -0.7737 -1.1484  0.2081
  565ACTN    H2 5649   0.489   0.190   4.082 -0.0460 -0.8891  1.5120
  565ACTN    H3 5650   0.414   0.040   4.141 -2.2284 -0.2256  1.0823
  566ACTN    H6 5651   3.167   2.062   4.296  1.2346 -1.1801 -1.1420
  566ACTN    C3 5652   3.123   1.977   4.348  0.3789 -0.1277 -0.1160
  566ACTN    H4 5653   3.195   1.896   4.341 -0.4795 -0.9366  0.2416
  566ACTN    H5 5654   3.123   1.997   4.455 -1.7274  0.4106 -0.1895
  566ACTN    C2 5655   2.985   1.952   4.290 -0.5192 -0.0855 -0.1503
  566ACTN    O1 5656   2.943   2.022   4.199  0.4298 -0.7880  0.4915
  566ACTN    C1 5657   2.896   1.849   4.366 -0.4913 -0.3984 -0.1907
  566ACTN    H1 5658   2.868   1.768   4.299 -0.3150 -1.3863  0.9178
  566ACTN    H2 5659   2.799   1.885   4.400  0.8715  1.2791  2.0782
  566ACTN    H3 5660   2.951   1.812   4.453  0.7354 -1.4016 -1.3692
  567ACTN    H6 5661   4.131   6.091   1.690 -1.2666  0.4087 -0.2824
  567ACTN    C3 5662   4.215   6.136   1.638 -0.2358 -0.7667  0.3238
  567ACTN    H4 5663   4.253   6.217   1.700 -0.1690 -1.5142  1.2554
  567ACTN    H5 5664   4.291   6.059   1.639 -0.8924 -1.4491 -0.8321
  567ACTN    C2 5665   4.195   6.176   1.500 -0.2553  1.2360  0.1166
  567ACTN    O1 5666   4.093   6.236   1.478 -0.0937 -0.1555 -0.1355
  567ACTN    C1 5667   4.295   6.159   1.390 -0.1734 -0.5318  0.5021
  567ACTN    H1 5668   4.238   6.111   1.310 -0.1925  0.3423 -0.0131
  567ACTN    H2 5669   4.376   6.094   1.422  1.0839  0.5074 -0.5341
  567ACTN    H3 5670   4.340   6.247   1.344 -1.0560  0.0968  0.8226
  568ACTN    H6 5671   0.437   0.327   4.510  0.3411  0.6321 -0.2980
  568ACTN    C3 5672   0.544   0.316   4.498  0.3291 -0.1094  0.2162
  568ACTN    H4 5673   0.579   0.215   4.480  1.4363 -0.0262  1.7834
  568ACTN    H5 5674   0.570   0.380   4.414 -1.8053  3.4328  2.1234
  568ACTN    C2 5675   0.623   0.378   4.612 -0.0719 -0.3628 -0.3916
  568ACTN    O1 5676   0.576   0.487   4.650  0.0874  0.5026  0.4220
  568ACTN    C1 5677   0.771   0.359   4.624 -0.0455  0.2955  0.3694
  568ACTN    H1 5678   0.797   0.254   4.639 -3.0010 -0.5573 -0.1265
  568ACTN    H2 5679   0.817   0.428   4.695 -0.4558  0.5102  0.4267
  568ACTN    H3 5680   0.824   0.381   4.531  0.1516  1.1191  0.6775
  569ACTN    H6 5681   1.070   0.707   3.310  0.2693 -2.1013 -0.3650
  569ACTN    C3 5682   1.097   0.747   3.212 -0.2809 -0.3328  0.1708
  569ACTN    H4 5683   1.071   0.674   3.135  0.0974 -0.3954  0.0983
  569ACTN    H5 5684   1.037   0.830   3.177  0.1570 -0.4275 -0.8425
  569ACTN    C2 5685   1.244   0.782   3.202  0.7864  0.2012 -0.0625
  569ACTN    O1 5686   1.281   0.890   3.156  0.0190  0.0864 -0.7600
  569ACTN    C1 5687   1.345   0.677   3.246  0.2948  0.3696  0.2259
  569ACTN    H1 5688   1.322   0.580   3.203 -0.6747  1.1351 -1.0403
  569ACTN    H2 5689   1.362   0.652   3.351 -0.7664  0.8182  0.5070
  569ACTN    H3 5690   1.442   0.702   3.203  0.1765 -1.2549 -1.0273
  570ACTN    H6 5691   6.093   3.135   0.581  1.2939  2.6481  0.7241
  570ACTN    C3 5692   6.037   3.144   0.674 -0.4318 -0.2076  0.0235
  570ACTN    H4 5693   6.104   3.153   0.759 -2.0833 -0.2503  1.3562
  570ACTN    H5 5694   5.977   3.235   0.665 -0.2400 -0.0644  0.1953
  570ACTN    C2 5695   5.950   3.034   0.684  0.6124  0.3079  0.6456
  570ACTN    O1 5696   5.931   2.956   0.590 -0.0848  0.6177 -0.0747
  570ACTN    C1 5697   5.875   3.018   0.815 -0.4208 -0.2609  0.3843
  570ACTN    H1 5698   5.953   2.986   0.884 -0.1345 -0.9196 -0.2441
  570ACTN    H2 5699   5.788   2.953   0.805 -2.1299  2.3078 -2.0929
  570ACTN    H3 5700   5.832   3.110   0.853 -3.2663 -1.5625  0.4449
  571ACTN    H6 5701   2.192   1.223   4.002 -2.2033 -1.8511 -0.2206
  571ACTN    C3 5702   2.255   1.135   4.011 -0.0109 -0.3115 -0.1986
  571ACTN    H4 5703   2.355   1.178   4.001 -0.3274 -0.0202 -2.2399
  571ACTN    H5 5704   2.246   1.097   4.113  2.4502  1.0530  0.5672
  571ACTN    C2 5705   2.227   1.041   3.901  0.1509 -0.8378  0.1374
  571ACTN    O1 5706   2.319   1.029   3.817  0.3531  0.7663 -0.4147
  571ACTN    C1 5707   2.090   0.989   3.882 -0.0530 -0.2101  0.3311
  571ACTN    H1 5708   2.055   0.946   3.976  0.3285 -0.0467  0.5504
  571ACTN    H2 5709   2.091   0.911   3.807 -0.7490  1.2164 -1.2055
  571ACTN    H3 5710   2.019   1.066   3.850 -1.2658 -2.3386 -2.2920
  572ACTN    H6 5711   1.077   5.880   2.992 -2.0452 -0.9373 -0.3390
  572ACTN    C3 5712   1.124   5.783   2.980  0.1492  0.0480  0.0444
  572ACTN    H4 5713   1.138   5.753   3.084 -2.3202 -0.8131  0.1572
  572ACTN    H5 5714   1.223   5.793   2.933  0.1290 -1.5737 -0.3834
  572ACTN    C2 5715   1.046   5.685   2.903  0.5641  0.2078  0.9884
  572ACTN    O1 5716   1.051   5.571   2.950 -0.4627 -0.2536  0.1531
  572ACTN    C1 5717   1.029   5.706   2.756  0.1362 -0.6345 -0.4856
  572ACTN    H1 5718   0.975   5.800   2.740  1.0090  0.3562  2.1576
  572ACTN    H2 5719   0.972   5.623   2.715 -1.5120  0.0404  0.3567
  572ACTN    H3 5720   1.129   5.721   2.714  1.0072 -0.0209  1.7254
  573ACTN    H6 5721   3.376   1.135   1.990  0.9338  1.5479 -2.0219
  573ACTN    C3 5722   3.469   1.079   1.986 -0.2785 -0.6942 -0.0566
  573ACTN    H4 5723   3.455   0.976   2.018 -1.7903 -0.4033  0.2213
  573ACTN    H5 5724   3.493   1.087   1.880  0.3749  1.3053  0.2143
  573ACTN    C2 5725   3.575   1.151   2.068 -0.0085  0.2073  0.3111
  573ACTN    O1 5726   3.680   1.093   2.081 -0.8879  0.5786 -0.3630
  573ACTN    C1 5727   3.538   1.279   2.145 -0.1362 -0.0819  0.1635
  573ACTN    H1 5728   3.439   1.269   2.190  0.3746  0.1322  1.3773
  573ACTN    H2 5729   3.535   1.367   2.082 -1.1723  0.8419  1.4665
  573ACTN    H3 5730   3.615   1.296   2.221 -0.1324 -0.7348  0.3160
  574ACTN    H6 5731   4.244   4.989   3.941 -0.5402 -0.7391 -0.2757
  574ACTN    C3 5732   4.285   4.988   4.042  0.2796 -0.0061 -0.5894
  574ACTN    H4 5733   4.227   5.053   4.107  2.0887  0.6029  0.4591
  574ACTN    H5 5734   4.277   4.886   4.080  0.7395  0.0074 -0.4534
  574ACTN    C2 5735   4.436   5.013   4.049  0.0859  0.3530  0.6256
  574ACTN    O1 5736   4.502   5.015   4.152 -0.0898  0.1307  0.0426
  574ACTN    C1 5737   4.498   5.052   3.918  0.1351 -0.5691  0.3726
  574ACTN    H1 5738   4.478   4.969   3.850  2.3114 -0.1104 -0.8830
  574ACTN    H2 5739   4.607   5.055   3.923  0.2048  1.4767 -1.5919
  574ACTN    H3 5740   4.458   5.144   3.877 -1.1303 -0.6999  1.2709
  575ACTN    H6 5741   0.641   6.721   2.480 -0.4390  3.6829 -0.8273
  575ACTN    C3 5742   0.552   6.713   2.543  0.3790 -1.1574 -0.0828
  575ACTN    H4 5743   0.462   6.744   2.489  0.4045 -1.2170 -0.1586
  575ACTN    H5 5744   0.536   6.610   2.575  0.2750 -1.4627 -1.0866
  575ACTN    C2 5745   0.555   6.819   2.648  0.4527  0.6633 -0.3227
  575ACTN    O1 5746   0.461   6.830   2.720  0.0030  0.4054  0.0874
  575ACTN    C1 5747   0.678   6.895   2.678 -0.2241 -0.0460 -1.1815
  575ACTN    H1 5748   0.664   6.955   2.768 -1.9248  0.0822 -1.5179
  575ACTN    H2 5749   0.699   6.965   2.598  2.7751  1.3036  0.6893
  575ACTN    H3 5750   0.762   6.828   2.695  1.1201  1.0052 -3.5174
  576ACTN    H6 5751   3.031   0.373   6.474 -2.2102 -1.2623 -1.6860
  576ACTN    C3 5752   3.066   0.403   6.375  0.0136  0.6364 -0.3638
  576ACTN    H4 5753   3.014   0.344   6.300 -0.7646 -0.8608  1.3236
  576ACTN    H5 5754   3.039   0.508   6.363 -2.2187  0.1084 -0.2445
  576ACTN    C2 5755   3.217   0.382   6.366 -0.1981  0.6041 -0.1046
  576ACTN    O1 5756   3.282   0.420   6.463 -0.3710 -0.5235  0.1426
  576ACTN    C1 5757   3.277   0.342   6.240  0.2191 -0.6250  0.0093
  576ACTN    H1 5758   3.205   0.329   6.159  0.4076  0.5027 -0.3512
  576ACTN    H2 5759   3.324   0.245   6.258  2.6039  0.3746 -0.6171
  576ACTN    H3 5760   3.357   0.410   6.210  1.1394 -1.0470  1.4535
  577ACTN    H6 5761   4.134   4.646   4.107 -0.0904 -0.4395  0.7630
  577ACTN    C3 5762   4.194   4.557   4.084  0.1082 -0.0664 -0.1580
  577ACTN    H4 5763   4.154   4.478   4.147  1.6054  0.1645  1.1099
  577ACTN    H5 5764   4.176   4.522   3.982  2.8034 -1.4353 -0.2033
  577ACTN    C2 5765   4.340   4.595   4.097 -0.3725  0.3659 -0.5091
  577ACTN    O1 5766   4.406   4.631   4.003 -0.3934  0.2581 -0.5123
  577ACTN    C1 5767   4.393   4.622   4.232  0.6302  0.0243  0.1570
  577ACTN    H1 5768   4.412   4.527   4.283  2.8638  0.1796 -0.3189
  577ACTN    H2 5769   4.309   4.678   4.272 -0.9319 -0.8517 -1.7914
  577ACTN    H3 5770   4.484   4.682   4.232 -0.0652  1.0899  0.5235
  578ACTN    H6 5771   5.521   2.291   1.074  0.6937 -0.7825  0.3233
  578ACTN    C3 5772   5.433   2.245   1.028  0.4718 -0.1605  0.1281
  578ACTN    H4 5773   5.412   2.302   0.938  0.9188  0.5672  0.4697
  578ACTN    H5 5774   5.467   2.143   1.009 -0.6543 -0.5545  0.2111
  578ACTN    C2 5775   5.307   2.263   1.114 -0.8466 -0.4960 -0.1625
  578ACTN    O1 5776   5.241   2.165   1.147  0.3892 -0.3884  0.2859
  578ACTN    C1 5777   5.260   2.399   1.164  0.6102  0.0964  0.3397
  578ACTN    H1 5778   5.289   2.485   1.105  0.1716 -1.1537 -1.7702
  578ACTN    H2 5779   5.310   2.417   1.260 -0.7720  0.2714  1.0403
  578ACTN    H3 5780   5.153   2.406   1.186  0.5640 -1.2427  0.6064
  579ACTN    H6 5781   2.545   5.946   5.216  0.1555 -0.4263 -0.2590
  579ACTN    C3 5782   2.496   5.862   5.167  0.4327 -0.7002 -0.0669
  579ACTN    H4 5783   2.478   5.887   5.062 -1.2092 -0.0011  0.3638
  579ACTN    H5 5784   2.571   5.783   5.173 -0.2579 -1.2880  0.9694
  579ACTN    C2 5785   2.371   5.829   5.235 -0.4280  0.7783  0.0713
  579ACTN    O1 5786   2.332   5.895   5.330 -0.3867  0.2586 -0.0687
  579ACTN    C1 5787   2.285   5.726   5.166  0.2209 -0.1969 -0.5219
  579ACTN    H1 5788   2.263   5.764   5.066 -2.2538  2.0888  0.8311
  579ACTN    H2 5789   2.193   5.690   5.212  1.2667 -1.5265  0.5686
  579ACTN    H3 5790   2.350   5.639   5.157 -0.4245 -0.7594  0.1800
  580ACTN    H6 5791   4.101   1.826   2.431 -0.3180 -0.2239  0.5929
  580ACTN    C3 5792   4.042   1.735   2.437 -0.9703  0.1215 -0.3689
  580ACTN    H4 5793   4.081   1.657   2.371  0.5791  0.3770  0.2380
  580ACTN    H5 5794   4.050   1.706   2.542 -0.7879  0.9585 -0.1522
  580ACTN    C2 5795   3.904   1.770   2.400  0.0323  0.1160  0.6249
  580ACTN    O1 5796   3.822   1.686   2.416  0.3819  0.5661  0.1158
  580ACTN    C1 5797   3.876   1.904   2.339  0.7169  0.5650  0.6668
  580ACTN    H1 5798   3.776   1.909   2.296  0.9466  0.2708  0.0958
  580ACTN    H2 5799   3.944   1.910   2.254  0.2412 -0.0311  0.2378
  580ACTN    H3 5800   3.892   1.988   2.407 -2.3136  0.0127  2.1497
  581ACTN    H6 5801   2.783   2.734   5.783 -0.7547 -0.0136  1.8319
  581ACTN    C3 5802   2.838   2.814   5.832  0.0995  0.2228  0.5104
  581ACTN    H4 5803   2.828   2.815   5.941  0.0065  0.8048  0.5014
  581ACTN    H5 5804   2.946   2.808   5.814  0.0527  0.6871  0.0629
  581ACTN    C2 5805   2.793   2.956   5.783  0.3392 -0.5205  0.5603
  581ACTN    O1 5806   2.797   3.044   5.867 -0.6959  0.0605 -0.1494
  581ACTN    C1 5807   2.708   2.968   5.654  0.7259 -0.4743  0.8993
  581ACTN    H1 5808   2.691   3.073   5.631  0.5655 -1.0220 -1.6554
  581ACTN    H2 5809   2.607   2.926   5.651  1.0778 -1.1915 -2.2804
  581ACTN    H3 5810   2.755   2.925   5.566 -1.1654 -1.0386  0.1389
  582ACTN    H6 5811   5.739   1.696   5.562 -0.1918  0.8364  1.2218
  582ACTN    C3 5812   5.805   1.617   5.598 -0.5479  0.2198  0.5283
  582ACTN    H4 5813   5.836   1.579   5.500  1.9058 -0.8487  1.6800
  582ACTN    H5 5814   5.888   1.660   5.653 -0.6532  0.8524  0.1959
  582ACTN    C2 5815   5.722   1.520   5.673  0.0465  0.3715  0.1849
  582ACTN    O1 5816   5.698   1.545   5.791  1.1138 -0.3710 -0.1306
  582ACTN    C1 5817   5.695   1.383   5.618  0.0149  0.1579 -0.6927
  582ACTN    H1 5818   5.677   1.299   5.686 -0.4316 -0.2654 -1.3246
  582ACTN    H2 5819   5.787   1.350   5.570 -1.8934 -2.6143 -2.5306
  582ACTN    H3 5820   5.615   1.380   5.544  0.3483  0.5738 -1.0702
  583ACTN    H6 5821   3.290   0.738   5.001  1.9647  1.5421  1.2264
  583ACTN    C3 5822   3.347   0.659   4.954 -0.5600  0.3306  0.1152
  583ACTN    H4 5823   3.396   0.701   4.867  0.0800 -0.3069  0.1651
  583ACTN    H5 5824   3.431   0.648   5.023  0.2782 -2.3397 -1.2633
  583ACTN    C2 5825   3.264   0.547   4.909  0.4770 -0.4196 -0.0780
  583ACTN    O1 5826   3.268   0.507   4.792  0.3209  0.3677  0.2136
  583ACTN    C1 5827   3.205   0.459   5.014  0.6320 -0.0735 -0.1899
  583ACTN    H1 5828   3.267   0.370   5.024  0.1826 -0.4503 -0.7194
  583ACTN    H2 5829   3.099   0.441   5.001  0.5694 -0.0862  0.3266
  583ACTN    H3 5830   3.213   0.511   5.109 -2.3610 -0.2845  0.2159
  584ACTN    H6 5831   4.084   5.314   0.021 -0.7509 -0.8671  1.6684
  584ACTN    C3 5832   4.039   5.413   0.014  0.7241 -0.2529  0.5762
  584ACTN    H4 5833   4.096   5.487   0.072 -1.4266  3.0632 -1.3762
  584ACTN    H5 5834   4.049   5.448  -0.089  0.4790 -1.6071  0.0900
  584ACTN    C2 5835   3.898   5.404   0.054 -0.0037  0.4802  0.3001
  584ACTN    O1 5836   3.822   5.350  -0.025 -0.4551 -0.3435 -0.4406
  584ACTN    C1 5837   3.845   5.460   0.185  0.5460 -0.2944  0.3324
  584ACTN    H1 5838   3.914   5.542   0.206  1.7458 -0.4545 -2.6387
  584ACTN    H2 5839   3.854   5.384   0.262 -2.1614 -0.0709  0.9095
  584ACTN    H3 5840   3.745   5.502   0.181 -0.1057 -1.6039  2.3701
  585ACTN    H6 5841   3.792   4.701   5.910 -0.8248  2.5840  0.4921
  585ACTN    C3 5842   3.690   4.665   5.916  0.1744 -0.5069 -0.2773
  585ACTN    H4 5843   3.626   4.753   5.923  1.2687  0.2999 -0.3147
  585ACTN    H5 5844   3.656   4.610   5.828 -2.0886  0.1435  0.1516
  585ACTN    C2 5845   3.651   4.589   6.044 -0.0476 -0.2057 -0.0315
  585ACTN    O1 5846   3.726   4.501   6.090 -0.1425  0.3069 -0.3680
  585ACTN    C1 5847   3.556   4.645   6.146  0.2283 -0.5070 -0.1066
  585ACTN    H1 5848   3.460   4.659   6.096  0.2515 -0.4234 -0.1272
  585ACTN    H2 5849   3.584   4.742   6.186  0.5618 -0.1273 -1.2462
  585ACTN    H3 5850   3.536   4.583   6.234  1.7361 -1.7865 -0.6304
  586ACTN    H6 5851   6.366   5.063   6.600  0.9684  1.4395  0.1265
  586ACTN    C3 5852   6.451   5.012   6.554 -0.4089 -0.5269 -0.2901
  586ACTN    H4 5853   6.473   5.061   6.459  1.3588  0.0014  0.3749
  586ACTN    H5 5854   6.536   5.022   6.621 -1.9515  0.8050  1.5206
  586ACTN    C2 5855   6.416   4.870   6.517 -0.1431 -0.4326 -0.2689
  586ACTN    O1 5856   6.346   4.808   6.596  0.0864  0.3659  0.0066
  586ACTN    C1 5857   6.497   4.797   6.415 -0.1928 -0.1685  0.0559
  586ACTN    H1 5858   6.557   4.863   6.352 -0.6437  0.4868  0.3001
  586ACTN    H2 5859   6.425   4.745   6.353 -1.7899 -0.3658  2.0362
  586ACTN    H3 5860   6.563   4.725   6.463  0.8474 -1.0367 -2.6323
  587ACTN    H6 5861   6.780   2.225   6.564 -0.7539 -0.2571 -0.9691
  587ACTN    C3 5862   6.710   2.149   6.598 -0.0906 -0.3736  0.1462
  587ACTN    H4 5863   6.766   2.056   6.611  1.4895  0.7198  1.3874
  587ACTN    H5 5864   6.676   2.170   6.699  0.7347 -0.8452  0.5369
  587ACTN    C2 5865   6.587   2.135   6.509  0.1805 -0.7839  0.8653
  587ACTN    O1 5866   6.578   2.052   6.417  0.0178  0.1852 -0.9495
  587ACTN    C1 5867   6.466   2.219   6.526  0.0586 -0.2398 -0.5185
  587ACTN    H1 5868   6.374   2.161   6.530  0.1708 -0.3922 -0.0752
  587ACTN    H2 5869   6.468   2.294   6.447  0.7508  1.1441  0.7723
  587ACTN    H3 5870   6.476   2.274   6.620  0.1155 -1.1828  0.0374
  588ACTN    H6 5871   4.317   4.837   1.712 -0.7183 -1.0331  0.8195
  588ACTN    C3 5872   4.232   4.904   1.697  0.0320 -0.0686  0.8077
  588ACTN    H4 5873   4.171   4.907   1.788  1.4032 -0.0479  1.7292
  588ACTN    H5 5874   4.271   5.005   1.693 -1.6215  0.6552  1.9625
  588ACTN    C2 5875   4.150   4.886   1.580  0.2378  0.2049  0.4440
  588ACTN    O1 5876   4.033   4.852   1.583  0.3178  1.1875 -0.9483
  588ACTN    C1 5877   4.214   4.915   1.441 -0.2182 -0.0228 -0.9029
  588ACTN    H1 5878   4.318   4.882   1.434  1.0499  3.0740  1.8884
  588ACTN    H2 5879   4.205   5.022   1.424  0.0031 -0.0354 -1.1033
  588ACTN    H3 5880   4.159   4.865   1.362 -1.0006 -0.1518 -0.2892
  589ACTN    H6 5881   7.231   7.034   2.035 -0.6213  3.1251 -0.2889
  589ACTN    C3 5882   7.198   7.032   2.139 -0.1055 -0.8615 -0.1546
  589ACTN    H4 5883   7.180   6.927   2.162  0.0550 -0.7153  0.6614
  589ACTN    H5 5884   7.275   7.069   2.207 -0.6509 -0.5205  0.2753
  589ACTN    C2 5885   7.071   7.110   2.136 -0.0811 -0.0043 -0.2050
  589ACTN    O1 5886   6.960   7.064   2.168 -0.0886  0.7802 -0.3081
  589ACTN    C1 5887   7.082   7.247   2.081  0.1705 -0.4417  0.0444
  589ACTN    H1 5888   7.176   7.262   2.027  1.3475  0.2567  2.2259
  589ACTN    H2 5889   7.075   7.317   2.164  1.4189 -0.7229  0.4082
  589ACTN    H3 5890   7.012   7.264   2.000  0.2845 -1.1300 -0.2010
  590ACTN    H6 5891   3.678   4.110   5.574 -0.7071 -1.0658  0.2807
  590ACTN    C3 5892   3.729   4.138   5.666 -0.0101  0.6527 -0.6085
  590ACTN    H4 5893   3.837   4.144   5.648  0.3296  0.2076  1.2433
  590ACTN    H5 5894   3.693   4.239   5.686  1.1567  0.1597  4.6068
  590ACTN    C2 5895   3.683   4.047   5.777  0.5042 -0.1639 -0.3805
  590ACTN    O1 5896   3.599   4.089   5.855 -0.1091  0.2389  0.3164
  590ACTN    C1 5897   3.745   3.910   5.799  0.2596  0.0677 -0.0605
  590ACTN    H1 5898   3.703   3.845   5.876  0.0017  1.0494  0.6322
  590ACTN    H2 5899   3.851   3.907   5.825 -0.4212  2.4365  3.3410
  590ACTN    H3 5900   3.726   3.852   5.709 -2.1124  0.1982  0.3178
  591ACTN    H6 5901   0.791   2.623   6.034  1.7595 -2.1990  0.6913
  591ACTN    C3 5902   0.705   2.587   6.090 -0.0334  0.1496 -0.4494
  591ACTN    H4 5903   0.742   2.526   6.172  2.3559  0.7921 -1.0061
  591ACTN    H5 5904   0.646   2.670   6.130 -0.5875  0.0539 -1.0590
  591ACTN    C2 5905   0.612   2.524   5.998  0.5472  0.1076  1.1419
  591ACTN    O1 5906   0.579   2.407   6.012 -0.4287 -0.2269  0.0819
  591ACTN    C1 5907   0.548   2.616   5.894  0.0563  0.3446  0.2990
  591ACTN    H1 5908   0.448   2.578   5.876  0.0069  0.2551  0.7600
  591ACTN    H2 5909   0.601   2.606   5.799 -0.3020 -0.0714  0.1405
  591ACTN    H3 5910   0.543   2.721   5.922 -0.7229  0.7383 -1.2582
  592ACTN    H6 5911   4.379   4.833   7.268 -0.0574 -0.0926 -0.4144
  592ACTN    C3 5912   4.297   4.834   7.340  0.3548 -0.2498  0.0587
  592ACTN    H4 5913   4.211   4.788   7.291 -0.2270 -0.1847  0.9864
  592ACTN    H5 5914   4.319   4.777   7.431 -1.2007  1.4791  1.5724
  592ACTN    C2 5915   4.265   4.972   7.368 -0.4597  0.5262 -0.2476
  592ACTN    O1 5916   4.264   5.014   7.482 -0.1502 -0.1381 -0.8140
  592ACTN    C1 5917   4.252   5.062   7.249  0.0188  0.1331 -0.3832
  592ACTN    H1 5918   4.268   5.002   7.159  3.7164  0.4483 -0.0103
  592ACTN    H2 5919   4.319   5.147   7.241 -0.5340  0.4077 -2.3359
  592ACTN    H3 5920   4.151   5.101   7.241  0.1686  1.0809  2.1308
  593ACTN    H6 5921   0.208   1.016   4.924  1.5737 -0.3113  1.2839
  593ACTN    C3 5922   0.177   0.918   4.962  0.3129 -0.5822 -0.3853
  593ACTN    H4 5923   0.163   0.841   4.886 -4.5398 -1.5559  1.2810
  593ACTN    H5 5924   0.253   0.891   5.035  0.0690 -1.0819 -0.3121
  593ACTN    C2 5925   0.038   0.926   5.018  0.2805 -0.1411 -0.8644
  593ACTN    O1 5926  -0.063   0.914   4.952  0.1264 -0.1989  0.0099
  593ACTN    C1 5927   0.024   0.946   5.162 -0.2623 -0.5583  0.8944
  593ACTN    H1 5928   0.044   0.851   5.211 -0.7842  0.8124  3.9121
  593ACTN    H2 5929  -0.080   0.967   5.188 -1.4697  0.2104 -4.0350
  593ACTN    H3 5930   0.087   1.025   5.204 -1.1834  1.5410 -1.5199
  594ACTN    H6 5931   1.052   2.678   2.232 -3.2442  3.9022 -3.2771
  594ACTN    C3 5932   1.124   2.751   2.269  0.1657 -0.8784  0.1465
  594ACTN    H4 5933   1.109   2.773   2.375  1.4049 -1.2098  0.3990
  594ACTN    H5 5934   1.228   2.720   2.258  0.8769  0.4804  2.4975
  594ACTN    C2 5935   1.096   2.874   2.186  0.8014 -0.3942  0.1364
  594ACTN    O1 5936   1.195   2.930   2.139 -0.4717 -0.3154 -0.8483
  594ACTN    C1 5937   0.959   2.917   2.153  0.3665 -0.6400  0.2733
  594ACTN    H1 5938   0.911   2.838   2.096 -1.3970 -0.0354  0.8997
  594ACTN    H2 5939   0.955   3.011   2.097  1.8780 -0.9785 -0.4366
  594ACTN    H3 5940   0.907   2.924   2.248 -1.1596  1.2883 -0.6595
  595ACTN    H6 5941   7.152   6.380   5.504 -0.1709  2.0851 -0.7309
  595ACTN    C3 5942   7.070   6.358   5.436 -0.2705 -0.8996  0.2597
  595ACTN    H4 5943   7.003   6.444   5.428 -0.0782 -0.8058 -0.4343
  595ACTN    H5 5944   7.123   6.335   5.343 -0.9157 -1.6956  0.0777
  595ACTN    C2 5945   6.998   6.233   5.484 -0.1410  0.1109 -0.0710
  595ACTN    O1 5946   6.940   6.225   5.595  0.5758 -0.5007  0.0793
  595ACTN    C1 5947   6.999   6.115   5.389 -0.1251  0.2036 -0.4593
  595ACTN    H1 5948   6.994   6.148   5.285 -3.0398  0.9699 -0.1313
  595ACTN    H2 5949   6.906   6.061   5.406 -0.9504  1.1419 -1.8914
  595ACTN    H3 5950   7.088   6.055   5.411  0.7890  1.2110 -1.3505
  596ACTN    H6 5951   1.629   5.154   2.021  0.2192 -0.6291  0.9971
  596ACTN    C3 5952   1.567   5.220   2.082 -0.4954 -0.2932 -0.0753
  596ACTN    H4 5953   1.508   5.299   2.036 -1.5289 -1.1592 -0.2639
  596ACTN    H5 5954   1.507   5.145   2.133 -0.6851 -0.1048 -0.0171
  596ACTN    C2 5955   1.647   5.285   2.189  0.5182 -0.2807  0.1183
  596ACTN    O1 5956   1.714   5.211   2.259 -0.0439  0.3523 -0.2306
  596ACTN    C1 5957   1.635   5.431   2.226 -0.6126 -0.4328  0.4064
  596ACTN    H1 5958   1.590   5.495   2.151  0.7229 -0.3542 -0.3374
  596ACTN    H2 5959   1.736   5.470   2.240  0.3563 -2.6756 -0.1403
  596ACTN    H3 5960   1.581   5.439   2.321  0.9206  1.8480  1.1258
  597ACTN    H6 5961   0.558   4.645   2.952  0.7450  0.9395 -2.2677
  597ACTN    C3 5962   0.612   4.554   2.979 -0.0653  1.1531  0.1846
  597ACTN    H4 5963   0.546   4.481   3.027  2.8751 -2.8646 -1.5997
  597ACTN    H5 5964   0.652   4.510   2.888  1.3235 -1.9220  2.1822
  597ACTN    C2 5965   0.721   4.586   3.076 -0.4002  0.1760 -0.1748
  597ACTN    O1 5966   0.711   4.694   3.136  0.5350 -0.1597  0.4363
  597ACTN    C1 5967   0.820   4.485   3.110  0.7773 -0.8788 -0.0341
  597ACTN    H1 5968   0.887   4.475   3.025  0.0657  0.4767 -0.7606
  597ACTN    H2 5969   0.776   4.388   3.132  3.3784 -1.9942  0.4470
  597ACTN    H3 5970   0.882   4.504   3.198 -2.2627  0.4542  1.9210
  598ACTN    H6 5971   6.774   3.730   1.435  0.7925  1.7004  1.8380
  598ACTN    C3 5972   6.874   3.704   1.402 -0.1159  0.0843  0.2804
  598ACTN    H4 5973   6.941   3.788   1.418 -0.3409  0.8128 -2.3935
  598ACTN    H5 5974   6.874   3.674   1.298 -0.1331  2.5949 -0.4651
  598ACTN    C2 5975   6.926   3.592   1.487 -0.4037 -0.9045  0.6631
  598ACTN    O1 5976   6.872   3.567   1.595 -0.5651 -0.0535 -0.0555
  598ACTN    C1 5977   7.063   3.542   1.460 -0.2174  0.5270 -0.5584
  598ACTN    H1 5978   7.110   3.607   1.386 -1.7260  1.0682 -1.0578
  598ACTN    H2 5979   7.057   3.441   1.419 -0.3742  0.0651  0.5880
  598ACTN    H3 5980   7.110   3.532   1.558 -1.3815 -2.8573 -0.2659
  599ACTN    H6 5981   7.098   6.428   3.428  3.9233 -0.0538 -0.0670
  599ACTN    C3 5982   7.102   6.425   3.537 -0.1062 -0.2866  0.1317
  599ACTN    H4 5983   7.085   6.525   3.578 -2.7466 -1.3921  1.9216
  599ACTN    H5 5984   7.017   6.366   3.573 -1.9052  0.3137 -2.8674
  599ACTN    C2 5985   7.236   6.367   3.578  0.2386  0.1887  0.3285
  599ACTN    O1 5986   7.337   6.436   3.584 -0.6813  0.8729 -0.1474
  599ACTN    C1 5987   7.244   6.224   3.626  0.0675 -0.4284  0.7256
  599ACTN    H1 5988   7.243   6.150   3.547 -1.5018 -0.1503  0.4702
  599ACTN    H2 5989   7.157   6.206   3.690 -1.4225 -1.4906 -1.5278
  599ACTN    H3 5990   7.335   6.207   3.684 -0.4273 -2.2696  0.9899
  600ACTN    H6 5991   1.752   1.292   4.831 -1.8118  1.2893 -2.5173
  600ACTN    C3 5992   1.754   1.400   4.844  0.1524  0.9310  0.5881
  600ACTN    H4 5993   1.825   1.428   4.922 -0.1023 -1.1499  1.5982
  600ACTN    H5 5994   1.797   1.444   4.754 -0.5686  0.5828  0.0726
  600ACTN    C2 5995   1.622   1.451   4.880 -0.4583 -0.5137  0.0713
  600ACTN    O1 5996   1.572   1.533   4.803 -0.9092 -0.5069  0.2485
  600ACTN    C1 5997   1.538   1.394   4.992 -0.2093  0.8175  0.4660
  600ACTN    H1 5998   1.490   1.299   4.969  2.1329 -0.6213  1.3291
  600ACTN    H2 5999   1.457   1.462   5.017 -0.6905  0.0148  1.1216
  600ACTN    H3 6000   1.598   1.386   5.083  0.8317 -0.7430 -0.3326
  601ACTN    H6 6001   1.892   6.864   5.392  1.6801  0.6153  2.5986
  601ACTN    C3 6002   1.826   6.933   5.444 -0.5219  0.3326  0.2617
  601ACTN    H4 6003   1.834   6.909   5.550  2.7228  0.1703  0.0259
  601ACTN    H5 6004   1.853   7.038   5.440  3.7338 -0.7302 -0.6831
  601ACTN    C2 6005   1.685   6.903   5.416  0.5493  0.0971 -0.2124
  601ACTN    O1 6006   1.642   6.814   5.345  0.1170  0.0582 -0.6926
  601ACTN    C1 6007   1.582   6.991   5.475  0.1977  0.2923  0.0668
  601ACTN    H1 6008   1.507   7.010   5.399 -0.2384  1.0239  0.6650
  601ACTN    H2 6009   1.614   7.090   5.509 -1.8742  0.4671  1.6415
  601ACTN    H3 6010   1.534   6.943   5.560  3.3932 -1.7382  0.8218
  602ACTN    H6 6011   1.002   6.799   0.698  2.0034 -0.3588 -0.0591
  602ACTN    C3 6012   0.956   6.707   0.736  0.5050  0.0560 -0.8449
  602ACTN    H4 6013   0.849   6.726   0.736  0.6317  0.8674  1.1435
  602ACTN    H5 6014   0.986   6.624   0.672  0.3906  1.3686 -2.6629
  602ACTN    C2 6015   0.994   6.688   0.878 -0.5948 -0.7456  0.1637
  602ACTN    O1 6016   0.951   6.591   0.934 -0.2818 -0.3036 -0.0834
  602ACTN    C1 6017   1.076   6.793   0.941 -0.0155  0.5028 -0.0945
  602ACTN    H1 6018   1.016   6.884   0.940 -0.0795  0.4778  0.7579
  602ACTN    H2 6019   1.170   6.814   0.890  0.6402 -2.0746  0.0101
  602ACTN    H3 6020   1.104   6.770   1.044 -1.2421  0.1142  0.1605
  603ACTN    H6 6021   5.998   7.327   1.263  1.8239  2.6506  2.2200
  603ACTN    C3 6022   5.974   7.253   1.339 -0.2255  0.6147 -0.2893
  603ACTN    H4 6023   5.905   7.302   1.408 -1.3450  0.2040 -1.1055
  603ACTN    H5 6024   5.922   7.167   1.297  0.4590 -0.6562  1.4107
  603ACTN    C2 6025   6.107   7.234   1.409 -0.5091  0.7048 -0.1907
  603ACTN    O1 6026   6.198   7.318   1.399  0.2233  0.0876  0.1498
  603ACTN    C1 6027   6.151   7.101   1.457 -0.3639  1.0273  0.6607
  603ACTN    H1 6028   6.065   7.034   1.463  0.7153 -0.3862  0.4769
  603ACTN    H2 6029   6.187   7.104   1.560  1.8981 -1.2929 -0.0071
  603ACTN    H3 6030   6.235   7.053   1.407 -1.0303  0.1234  0.4042
  604ACTN    H6 6031   0.560   6.161   2.350 -1.1009  0.1417 -1.3034
  604ACTN    C3 6032   0.629   6.083   2.318 -0.0222  0.3722  0.4214
  604ACTN    H4 6033   0.619   5.997   2.383 -0.5486 -0.6908 -1.0443
  604ACTN    H5 6034   0.597   6.047   2.220 -0.2978 -0.4311  0.8036
  604ACTN    C2 6035   0.772   6.117   2.318 -0.4669 -0.1265  0.2243
  604ACTN    O1 6036   0.862   6.033   2.307  0.4120 -0.0965  0.2213
  604ACTN    C1 6037   0.806   6.260   2.350  0.0063  0.1869 -0.6393
  604ACTN    H1 6038   0.879   6.271   2.430 -0.5675  1.2350 -0.2547
  604ACTN    H2 6039   0.720   6.324   2.369  0.2013 -0.2246  1.7206
  604ACTN    H3 6040   0.852   6.292   2.257  0.1950 -0.1737 -0.6719
  605ACTN    H6 6041   2.118   1.488   5.102  1.5850  0.3803  0.8254
  605ACTN    C3 6042   2.084   1.458   5.201 -0.8939  0.2708 -0.0222
  605ACTN    H4 6043   2.106   1.353   5.221  3.1053  1.4122  2.0705
  605ACTN    H5 6044   2.139   1.525   5.268  0.6768 -1.2000  0.2074
  605ACTN    C2 6045   1.931   1.472   5.210 -0.3910  0.8846 -0.3529
  605ACTN    O1 6046   1.862   1.367   5.216  0.1514 -0.9561  0.3042
  605ACTN    C1 6047   1.873   1.610   5.177 -0.1220 -0.1511 -0.8030
  605ACTN    H1 6048   1.800   1.602   5.096  0.9415 -1.8515 -1.6199
  605ACTN    H2 6049   1.949   1.685   5.155 -1.6929  1.1205 -1.9765
  605ACTN    H3 6050   1.830   1.655   5.267  1.5437  0.8188 -0.4730
  606ACTN    H6 6051   5.904   6.716   0.683  0.6859  2.2765 -1.7185
  606ACTN    C3 6052   5.936   6.639   0.614 -0.4165  0.2989 -0.0625
  606ACTN    H4 6053   5.864   6.557   0.602  0.0586  0.0190 -1.0725
  606ACTN    H5 6054   5.959   6.693   0.523  2.2678  1.9871  1.5666
  606ACTN    C2 6055   6.067   6.593   0.668  0.0837  1.0191  0.1106
  606ACTN    O1 6056   6.172   6.652   0.665  0.0816  0.0199  0.3010
  606ACTN    C1 6057   6.057   6.451   0.717 -0.1856 -0.1170  0.4324
  606ACTN    H1 6058   5.973   6.450   0.787 -0.2687  1.6326  0.3813
  606ACTN    H2 6059   6.148   6.437   0.776  1.0681 -0.8723 -1.6391
  606ACTN    H3 6060   6.044   6.370   0.646 -2.5407 -0.9811  1.8157
  607ACTN    H6 6061   1.904   5.498   2.858 -0.5356 -3.4739  0.8451
  607ACTN    C3 6062   1.889   5.503   2.966  0.1131  0.1971  0.8252
  607ACTN    H4 6063   1.903   5.605   3.002 -1.4908  1.0173 -0.8020
  607ACTN    H5 6064   1.787   5.473   2.988 -1.3445  2.7207 -2.0760
  607ACTN    C2 6065   1.968   5.401   3.031 -0.1956  0.0528 -0.6551
  607ACTN    O1 6066   2.036   5.445   3.126  0.2298 -0.5657  0.3248
  607ACTN    C1 6067   1.977   5.268   2.976  0.1738 -0.0665  0.4588
  607ACTN    H1 6068   2.083   5.246   2.960  0.2570 -0.3431  1.3680
  607ACTN    H2 6069   1.925   5.264   2.880  1.0423  1.6279 -0.1076
  607ACTN    H3 6070   1.942   5.189   3.043 -1.8419  1.4291  1.1998
  608ACTN    H6 6071   6.643   4.370   2.362  0.2562  0.7368  0.7165
  608ACTN    C3 6072   6.669   4.401   2.261  0.3960  0.3828  0.6443
  608ACTN    H4 6073   6.724   4.317   2.218  0.1389  0.2227  0.6233
  608ACTN    H5 6074   6.589   4.426   2.191  2.1335 -0.2437 -1.6222
  608ACTN    C2 6075   6.752   4.526   2.285 -0.0049  0.5584 -0.6689
  608ACTN    O1 6076   6.700   4.633   2.288  0.5498 -0.5501 -0.4279
  608ACTN    C1 6077   6.885   4.497   2.361 -0.2536  0.0849  0.1669
  608ACTN    H1 6078   6.920   4.396   2.341  1.1713  0.7434 -0.7424
  608ACTN    H2 6079   6.876   4.511   2.469 -2.2206  0.7590 -0.0719
  608ACTN    H3 6080   6.960   4.571   2.332 -2.3067  1.7696 -1.0014
  609ACTN    H6 6081   3.531   1.112   3.755 -0.6896  1.3487 -1.7414
  609ACTN    C3 6082   3.449   1.048   3.723 -0.1177 -0.1618 -0.2885
  609ACTN    H4 6083   3.483   0.957   3.675 -0.1243 -0.2478 -0.1296
  609ACTN    H5 6084   3.381   1.094   3.651  1.4457  0.1980 -1.5640
  609ACTN    C2 6085   3.356   1.009   3.839 -0.1366 -0.4610 -0.3645
  609ACTN    O1 6086   3.340   0.897   3.877 -0.1146 -0.3778 -0.0501
  609ACTN    C1 6087   3.295   1.129   3.894 -0.6301  0.1867 -0.1269
  609ACTN    H1 6088   3.276   1.208   3.821  0.3369  1.5957  1.1013
  609ACTN    H2 6089   3.347   1.173   3.979 -0.3080 -1.5481  0.5913
  609ACTN    H3 6090   3.196   1.107   3.934 -0.0403 -0.1935  1.1585
  610ACTN    H6 6091   1.425   7.161   3.995  1.3627  0.5246 -0.9817
  610ACTN    C3 6092   1.422   7.089   3.914  0.1849 -0.3028 -0.2163
  610ACTN    H4 6093   1.365   7.005   3.954 -0.1183  0.4161  0.8731
  610ACTN    H5 6094   1.366   7.122   3.826  1.2988  0.3841 -0.6756
  610ACTN    C2 6095   1.559   7.030   3.888  0.1494 -0.1393 -0.1561
  610ACTN    O1 6096   1.637   7.022   3.990 -0.1434 -0.5353  0.4340
  610ACTN    C1 6097   1.601   6.972   3.762 -0.3089 -0.4511 -0.8441
  610ACTN    H1 6098   1.556   6.873   3.751  2.3438 -2.1008  2.3487
  610ACTN    H2 6099   1.709   6.964   3.755 -0.1621  0.6253  0.0204
  610ACTN    H3 6100   1.572   7.036   3.678 -2.1012 -0.6661 -0.4152
  611ACTN    H6 6101   0.600   6.652   6.557  1.2835  0.9010  0.8353
  611ACTN    C3 6102   0.547   6.744   6.582  0.3639  0.6780 -0.2506
  611ACTN    H4 6103   0.601   6.804   6.654 -0.9221  1.9506 -0.3344
  611ACTN    H5 6104   0.550   6.803   6.490  0.7644  1.2465  0.1272
  611ACTN    C2 6105   0.406   6.712   6.618 -0.2451  0.0550 -0.3944
  611ACTN    O1 6106   0.322   6.693   6.534  0.5448 -0.3554  0.1612
  611ACTN    C1 6107   0.375   6.693   6.760  0.2988 -0.0985  0.2493
  611ACTN    H1 6108   0.269   6.710   6.776  0.3843  3.2636 -2.3399
  611ACTN    H2 6109   0.434   6.761   6.822 -0.2076  1.9831 -1.5124
  611ACTN    H3 6110   0.409   6.594   6.792  1.1464  0.9354  2.7488
  612ACTN    H6 6111   1.721   1.644   6.321  0.4995  0.6733 -0.8480
  612ACTN    C3 6112   1.698   1.693   6.416 -0.0156 -0.2854 -0.4681
  612ACTN    H4 6113   1.778   1.663   6.484  1.7567  0.4264 -2.1854
  612ACTN    H5 6114   1.701   1.801   6.402  0.7962 -0.0948  1.1089
  612ACTN    C2 6115   1.566   1.642   6.457  0.1028 -0.3990 -0.1912
  612ACTN    O1 6116   1.478   1.632   6.376  0.1482 -0.0666 -0.0464
  612ACTN    C1 6117   1.533   1.644   6.605 -0.0241  0.5793 -0.4748
  612ACTN    H1 6118   1.463   1.721   6.637 -0.7900 -0.2621 -0.0890
  612ACTN    H2 6119   1.621   1.649   6.670 -1.2929  0.9444  1.2611
  612ACTN    H3 6120   1.487   1.548   6.627  2.2407 -1.0567 -2.5982
  613ACTN    H6 6121   0.693   1.871   0.000 -1.3867  1.9073 -0.9833
  613ACTN    C3 6122   0.633   1.818   0.074  0.1634  0.7783 -0.5007
  613ACTN    H4 6123   0.557   1.756   0.027 -2.2519  2.9486  0.4647
  613ACTN    H5 6124   0.702   1.758   0.134  1.4485  1.3384 -1.3910
  613ACTN    C2 6125   0.564   1.921   0.146 -0.4262 -0.0032 -0.0120
  613ACTN    O1 6126   0.443   1.938   0.127  0.1029  0.6484 -0.7719
  613ACTN    C1 6127   0.650   2.027   0.215 -0.0481  0.3053  0.5368
  613ACTN    H1 6128   0.611   2.116   0.165  1.3532  0.1304 -0.9027
  613ACTN    H2 6129   0.755   2.012   0.190 -0.8757 -1.4270 -2.1681
  613ACTN    H3 6130   0.636   2.027   0.323 -4.0284 -1.7567  0.1374
  614ACTN    H6 6131   2.824   2.772   6.245 -0.2716  1.1550 -0.9697
  614ACTN    C3 6132   2.721   2.768   6.209 -0.4465  0.2493 -0.3644
  614ACTN    H4 6133   2.650   2.791   6.289 -0.6719 -1.1194 -0.1555
  614ACTN    H5 6134   2.716   2.849   6.137  2.1036 -0.4540 -1.3806
  614ACTN    C2 6135   2.692   2.631   6.147 -0.2482 -0.2916 -0.0674
  614ACTN    O1 6136   2.700   2.533   6.219 -0.1701  0.4865 -0.0199
  614ACTN    C1 6137   2.623   2.616   6.012  0.3802 -0.1404 -0.2027
  614ACTN    H1 6138   2.581   2.714   5.991  1.9266  0.6967  0.5185
  614ACTN    H2 6139   2.546   2.539   6.016  0.6842 -0.4606 -0.4588
  614ACTN    H3 6140   2.701   2.597   5.938  0.3141  1.0133 -0.5772
  615ACTN    H6 6141   0.809   3.317   2.229 -1.3556  0.3257  1.7163
  615ACTN    C3 6142   0.808   3.230   2.296 -0.0740 -0.8486  0.2398
  615ACTN    H4 6143   0.798   3.145   2.228 -3.3515  0.9776 -1.7088
  615ACTN    H5 6144   0.905   3.224   2.345 -0.8861 -2.9287  1.6279
  615ACTN    C2 6145   0.697   3.218   2.397 -0.0366 -0.3877 -0.0454
  615ACTN    O1 6146   0.677   3.109   2.446 -0.0438  0.2313  0.1874
  615ACTN    C1 6147   0.582   3.315   2.409  0.7744 -0.2479  0.4609
  615ACTN    H1 6148   0.492   3.267   2.373  0.5685  0.3472  0.1789
  615ACTN    H2 6149   0.593   3.403   2.346  0.8788 -1.6645 -1.5449
  615ACTN    H3 6150   0.566   3.341   2.514 -0.6233  2.8259 -0.4513
  616ACTN    H6 6151   1.813   0.464   1.630  1.2943 -0.5908 -0.7707
  616ACTN    C3 6152   1.892   0.455   1.705 -0.2236 -0.6540  0.8637
  616ACTN    H4 6153   1.883   0.352   1.738 -0.9426 -1.2533 -1.0944
  616ACTN    H5 6154   1.990   0.465   1.659 -0.3208 -0.9540  0.5829
  616ACTN    C2 6155   1.873   0.561   1.808  0.0816  0.1421 -0.8806
  616ACTN    O1 6156   1.765   0.574   1.863 -0.0720  0.4449  0.6769
  616ACTN    C1 6157   1.975   0.666   1.816  0.0046  0.3030 -0.4429
  616ACTN    H1 6158   1.950   0.743   1.889 -0.8467  0.0229 -0.4379
  616ACTN    H2 6159   1.977   0.716   1.719 -0.1947 -0.8331 -1.0374
  616ACTN    H3 6160   2.075   0.626   1.829  0.0921 -0.2735 -2.6810
  617ACTN    H6 6161   2.657   5.406   5.957  0.5483  0.3559  1.4866
  617ACTN    C3 6162   2.759   5.370   5.964  0.5136 -0.1550 -0.4893
  617ACTN    H4 6163   2.783   5.385   6.069  0.4330  0.5585 -0.5689
  617ACTN    H5 6164   2.771   5.264   5.943  2.3542 -0.1028  0.1893
  617ACTN    C2 6165   2.849   5.460   5.890  0.4766 -0.3314 -0.1877
  617ACTN    O1 6166   2.857   5.449   5.766  0.1215  0.2188  0.0772
  617ACTN    C1 6167   2.918   5.581   5.954 -0.5849  0.9128  0.0314
  617ACTN    H1 6168   3.019   5.552   5.982 -0.7472 -0.5951 -0.8517
  617ACTN    H2 6169   2.869   5.619   6.043 -1.1137 -0.5914  0.3883
  617ACTN    H3 6170   2.926   5.671   5.893 -2.7584 -1.5313 -4.1138
  618ACTN    H6 6171   6.686   6.162   1.518  3.0545  0.6815 -0.0932
  618ACTN    C3 6172   6.666   6.149   1.412  0.7873  0.5892  0.3166
  618ACTN    H4 6173   6.577   6.209   1.397 -0.6797 -0.9229  2.5999
  618ACTN    H5 6174   6.743   6.196   1.350 -1.6304  3.8605 -0.3334
  618ACTN    C2 6175   6.641   6.007   1.369  0.3561 -0.1953 -0.6580
  618ACTN    O1 6176   6.651   5.912   1.448  0.2213 -0.3992  0.3772
  618ACTN    C1 6177   6.623   5.971   1.225 -0.0935 -0.2728 -0.0660
  618ACTN    H1 6178   6.713   5.920   1.191  0.4453  0.7355 -0.1672
  618ACTN    H2 6179   6.599   6.059   1.166 -1.3585  0.1329  1.0095
  618ACTN    H3 6180   6.533   5.908   1.218  0.1806 -0.7991  0.9122
  619ACTN    H6 6181   0.984   6.912   4.757 -0.4606  0.8728  1.6928
  619ACTN    C3 6182   1.082   6.959   4.769  0.2193  0.2019 -0.9047
  619ACTN    H4 6183   1.072   7.064   4.793  1.1102  0.9143 -3.4800
  619ACTN    H5 6184   1.134   6.912   4.853  1.4018  2.4651 -0.3452
  619ACTN    C2 6185   1.179   6.940   4.659 -0.4599 -0.0211  0.2113
  619ACTN    O1 6186   1.255   7.022   4.615  0.7091 -0.8100 -0.6696
  619ACTN    C1 6187   1.170   6.811   4.579 -0.6683  0.5685 -0.5712
  619ACTN    H1 6188   1.266   6.759   4.582 -0.9569  0.0586 -0.2323
  619ACTN    H2 6189   1.146   6.839   4.476  0.5929  0.5461 -0.8916
  619ACTN    H3 6190   1.085   6.757   4.620 -0.1460 -0.2699 -0.5954
  620ACTN    H6 6191   6.273   2.044   6.150 -0.9097  0.8731 -0.5456
  620ACTN    C3 6192   6.278   2.036   6.042  0.1717  0.1536 -0.4450
  620ACTN    H4 6193   6.246   1.935   6.018 -1.5398 -0.1269  2.8442
  620ACTN    H5 6194   6.196   2.091   5.998  1.0880  0.1670 -2.1918
  620ACTN    C2 6195   6.410   2.059   5.979 -0.5856 -0.8185 -0.0975
  620ACTN    O1 6196   6.479   2.154   6.014  0.1911 -0.0341 -0.3383
  620ACTN    C1 6197   6.469   1.963   5.885  0.1347 -0.9047  0.3631
  620ACTN    H1 6198   6.563   1.927   5.925 -0.2510 -2.2949  0.0406
  620ACTN    H2 6199   6.481   2.007   5.786 -1.4059  0.8337  0.9159
  620ACTN    H3 6200   6.396   1.883   5.873 -0.8248  0.2139 -1.5912
  621ACTN    H6 6201   4.668   6.233   1.099 -0.2018  1.1031 -1.9716
  621ACTN    C3 6202   4.648   6.140   1.046 -0.1861  0.0952 -0.2479
  621ACTN    H4 6203   4.619   6.055   1.108 -1.3281 -0.4318 -1.4678
  621ACTN    H5 6204   4.563   6.155   0.979 -0.5957 -0.8591  0.0439
  621ACTN    C2 6205   4.766   6.106   0.963 -0.1537  0.0983  0.0418
  621ACTN    O1 6206   4.864   6.183   0.958  0.1402  0.0878 -0.3030
  621ACTN    C1 6207   4.736   5.999   0.862 -0.8176  0.4128 -0.0018
  621ACTN    H1 6208   4.665   6.051   0.798  0.2075  0.4551 -1.1252
  621ACTN    H2 6209   4.696   5.908   0.908  2.5848 -2.2702 -2.0251
  621ACTN    H3 6210   4.827   5.964   0.812  2.3480  4.3867  2.6475
  622ACTN    H6 6211   4.442   5.485   4.414  0.4431  0.1194  0.2466
  622ACTN    C3 6212   4.374   5.562   4.379 -0.1081 -0.2695  0.4593
  622ACTN    H4 6213   4.367   5.631   4.463 -0.0093  1.3908 -0.8569
  622ACTN    H5 6214   4.431   5.613   4.301 -0.4302  1.5179  1.3680
  622ACTN    C2 6215   4.242   5.511   4.321 -0.8644 -0.3059  0.1083
  622ACTN    O1 6216   4.175   5.438   4.393  0.1362 -0.1454 -0.5313
  622ACTN    C1 6217   4.194   5.578   4.198 -0.5077 -0.2932  0.2573
  622ACTN    H1 6218   4.193   5.686   4.209  0.9884 -0.3507  1.0529
  622ACTN    H2 6219   4.090   5.552   4.177 -0.3294 -2.6513  2.0310
  622ACTN    H3 6220   4.262   5.545   4.119  0.2449  0.3329  0.6379
  623ACTN    H6 6221   2.503   5.013   2.355  0.8873 -0.9958  0.4587
  623ACTN    C3 6222   2.536   5.060   2.448 -0.4273  0.7437  0.0720
  623ACTN    H4 6223   2.485   5.006   2.528 -0.2577 -0.4179 -0.5868
  623ACTN    H5 6224   2.638   5.024   2.451  0.1418  2.2082 -1.1534
  623ACTN    C2 6225   2.517   5.210   2.455  0.0184  0.8424 -0.1015
  623ACTN    O1 6226   2.609   5.283   2.484 -0.6249 -0.0310 -0.5911
  623ACTN    C1 6227   2.381   5.257   2.450 -0.0572  0.4471 -0.1180
  623ACTN    H1 6228   2.355   5.312   2.540 -2.2921 -0.8148  0.0475
  623ACTN    H2 6229   2.311   5.174   2.433  0.9181 -0.5763  0.7679
  623ACTN    H3 6230   2.369   5.321   2.363  1.2540 -1.2060 -1.5668
  624ACTN    H6 6231   6.684   5.462   5.161  1.0980 -3.1943 -1.7636
  624ACTN    C3 6232   6.742   5.519   5.089  0.7461 -0.6339 -0.0927
  624ACTN    H4 6233   6.673   5.591   5.045  1.4697  0.4849  0.5657
  624ACTN    H5 6234   6.816   5.584   5.137 -1.1595  0.9490  0.7550
  624ACTN    C2 6235   6.820   5.434   4.985  0.1621 -0.2192 -0.2412
  624ACTN    O1 6236   6.940   5.457   4.976  0.3850  0.4526 -0.1333
  624ACTN    C1 6237   6.745   5.348   4.888 -0.1139 -0.2125 -0.4577
  624ACTN    H1 6238   6.683   5.277   4.942  0.8094 -1.7265 -1.3570
  624ACTN    H2 6239   6.820   5.306   4.822  1.7600  0.1308  1.4144
  624ACTN    H3 6240   6.687   5.420   4.830  1.1757  1.6679  0.5208
  625ACTN    H6 6241   1.712   6.884   2.227  2.1668  0.5985 -0.3640
  625ACTN    C3 6242   1.734   6.878   2.333 -0.5038  0.3827  0.2117
  625ACTN    H4 6243   1.840   6.853   2.327 -0.8421 -0.6073 -1.9630
  625ACTN    H5 6244   1.739   6.977   2.377  0.7219  0.0509  0.8589
  625ACTN    C2 6245   1.645   6.776   2.402 -0.0606  0.1576  0.2793
  625ACTN    O1 6246   1.531   6.813   2.408 -0.6087 -0.1926 -0.2309
  625ACTN    C1 6247   1.691   6.641   2.452 -0.0615  0.0981  0.3058
  625ACTN    H1 6248   1.698   6.567   2.372 -1.3762 -0.7630  0.9574
  625ACTN    H2 6249   1.619   6.619   2.532  0.9381  0.4192  1.3029
  625ACTN    H3 6250   1.783   6.664   2.505  0.4689  0.0571 -0.6098
  626ACTN    H6 6251   5.513   5.832   0.051 -2.6087  1.9506  1.4509
  626ACTN    C3 6252   5.586   5.868   0.124 -0.0226 -0.5302  0.1897
  626ACTN    H4 6253   5.682   5.846   0.076  0.5231 -0.5926  1.2989
  626ACTN    H5 6254   5.570   5.975   0.136 -0.1611 -0.4965 -0.2748
  626ACTN    C2 6255   5.568   5.785   0.246 -0.0557 -0.1255  0.1204
  626ACTN    O1 6256   5.580   5.664   0.233 -0.3156 -0.7647 -0.1929
  626ACTN    C1 6257   5.573   5.857   0.380 -0.0881  0.8081  0.2899
  626ACTN    H1 6258   5.488   5.925   0.375  0.2396  1.1474 -0.9549
  626ACTN    H2 6259   5.667   5.911   0.385  0.5392 -0.3186  0.8993
  626ACTN    H3 6260   5.555   5.781   0.456 -0.7853  0.8475  0.1721
  627ACTN    H6 6261   6.947   5.805   0.917 -1.1531  0.3949  1.5741
  627ACTN    C3 6262   7.028   5.828   0.986  0.1802 -0.4077  0.2950
  627ACTN    H4 6263   6.992   5.806   1.086 -1.9171  1.5128  0.0165
  627ACTN    H5 6264   7.100   5.750   0.959  0.3000 -1.0857  2.4736
  627ACTN    C2 6265   7.088   5.971   0.975 -0.1917 -0.0675 -0.5220
  627ACTN    O1 6266   7.021   6.065   1.018  0.2686  0.1971  0.1222
  627ACTN    C1 6267   7.228   5.994   0.944 -0.8038 -0.5088 -0.1339
  627ACTN    H1 6268   7.237   5.998   0.835 -0.7784 -0.3088 -0.1252
  627ACTN    H2 6269   7.295   5.920   0.986 -1.1073  1.2295  3.6430
  627ACTN    H3 6270   7.266   6.089   0.981  1.5595 -1.1979 -0.6786
  628ACTN    H6 6271   2.880   5.396   2.270  1.3695  1.8418  0.3941
  628ACTN    C3 6272   2.917   5.372   2.370  0.3813  0.4385  0.4276
  628ACTN    H4 6273   2.985   5.455   2.391  0.3240  0.2779  1.2599
  628ACTN    H5 6274   2.839   5.380   2.445 -1.0879 -0.0777 -1.0201
  628ACTN    C2 6275   2.994   5.245   2.390 -0.1668  0.4138  0.1651
  628ACTN    O1 6276   3.089   5.233   2.322  0.5368 -0.0977 -0.3801
  628ACTN    C1 6277   2.950   5.142   2.493 -0.1332  0.9337 -0.3723
  628ACTN    H1 6278   2.961   5.198   2.586  1.8051 -0.0332 -0.0083
  628ACTN    H2 6279   2.995   5.044   2.485 -1.1536  0.2298  1.9829
  628ACTN    H3 6280   2.842   5.131   2.480  0.2715 -0.6806 -2.6497
  629ACTN    H6 6281   2.779   7.315   5.830  0.7874  0.2489  1.6790
  629ACTN    C3 6282   2.834   7.394   5.778 -0.1430 -0.0933  0.1498
  629ACTN    H4 6283   2.938   7.367   5.797  0.0492  0.1351 -0.5560
  629ACTN    H5 6284   2.831   7.380   5.670  2.4231  0.8975 -0.0945
  629ACTN    C2 6285   2.800   7.531   5.818  0.5239 -0.8432 -0.0876
  629ACTN    O1 6286   2.755   7.602   5.732 -0.1517  0.6714  0.5402
  629ACTN    C1 6287   2.815   7.584   5.960  0.5186 -0.0413  0.1913
  629ACTN    H1 6288   2.879   7.672   5.953  1.5380 -0.7565  0.4220
  629ACTN    H2 6289   2.860   7.508   6.025 -0.8245 -0.5007  0.6061
  629ACTN    H3 6290   2.716   7.620   5.987  0.9117  1.6465 -0.5271
  630ACTN    H6 6291   3.264   0.988   7.282 -0.0283  0.0640  0.4792
  630ACTN    C3 6292   3.157   1.010   7.287 -0.0770  0.0491 -0.4489
  630ACTN    H4 6293   3.136   1.100   7.229 -0.5936  0.4111  0.2933
  630ACTN    H5 6294   3.109   0.929   7.232 -0.9044  0.6063 -0.5572
  630ACTN    C2 6295   3.104   1.028   7.428 -0.2245 -0.3814 -0.0221
  630ACTN    O1 6296   3.001   0.972   7.463  0.0942 -0.1204  0.1003
  630ACTN    C1 6297   3.183   1.100   7.534 -0.0585 -0.0593  0.2249
  630ACTN    H1 6298   3.131   1.192   7.560 -0.0881  0.0487 -0.2050
  630ACTN    H2 6299   3.285   1.124   7.504 -0.2254  1.4653  0.8502
  630ACTN    H3 6300   3.185   1.041   7.626  0.0389  0.4483  0.5507
  631ACTN    H6 6301   2.793   1.566   5.091  2.0097  2.6519 -0.3174
  631ACTN    C3 6302   2.791   1.568   4.982 -0.2496  0.2144 -0.3735
  631ACTN    H4 6303   2.685   1.568   4.957 -0.1512 -3.2007 -0.9943
  631ACTN    H5 6304   2.843   1.660   4.955 -1.3683  0.9561 -0.0461
  631ACTN    C2 6305   2.871   1.459   4.923  0.2803  0.3002 -0.2148
  631ACTN    O1 6306   2.857   1.422   4.808 -0.0270  0.1066 -0.1497
  631ACTN    C1 6307   2.954   1.368   5.011 -0.8007 -0.4076 -0.5133
  631ACTN    H1 6308   3.049   1.412   5.043 -1.1809 -0.2847  0.4296
  631ACTN    H2 6309   2.962   1.269   4.966  1.5428  0.0775 -1.2697
  631ACTN    H3 6310   2.898   1.353   5.103 -1.9611 -1.9427 -1.4538
  632ACTN    H6 6311   1.342   6.231   4.608  0.9361 -1.5569  1.0398
  632ACTN    C3 6312   1.399   6.273   4.691  0.7725 -0.0157  0.3859
  632ACTN    H4 6313   1.412   6.379   4.670 -0.1817 -0.0272 -0.2512
  632ACTN    H5 6314   1.332   6.274   4.777 -1.7394  0.6968 -1.5305
  632ACTN    C2 6315   1.529   6.205   4.723 -0.3928  0.0253  0.0171
  632ACTN    O1 6316   1.543   6.084   4.754  0.6444 -0.0018  0.1397
  632ACTN    C1 6317   1.655   6.291   4.714 -0.4416 -0.1691 -0.5241
  632ACTN    H1 6318   1.634   6.378   4.651  0.0383  1.3368  1.3427
  632ACTN    H2 6319   1.744   6.236   4.684  1.0869  1.2611  1.2625
  632ACTN    H3 6320   1.664   6.333   4.814 -0.3384  0.9806 -1.0010
  633ACTN    H6 6321   5.045   1.908   0.949  1.1215  0.5106 -1.0049
  633ACTN    C3 6322   4.990   1.963   0.873  0.2818  0.9549 -0.0912
  633ACTN    H4 6323   4.928   1.887   0.827  1.8521 -0.1857 -0.3742
  633ACTN    H5 6324   4.926   2.038   0.919 -1.1878 -0.4212  0.1398
  633ACTN    C2 6325   5.092   2.026   0.787 -0.1418  0.0233  0.2978
  633ACTN    O1 6326   5.057   2.091   0.690 -0.0344 -0.1330 -0.5301
  633ACTN    C1 6327   5.227   2.047   0.840 -0.0286 -0.2043 -0.9619
  633ACTN    H1 6328   5.273   1.968   0.900  1.7610  0.8091 -0.9577
  633ACTN    H2 6329   5.218   2.132   0.909 -0.3233 -3.1654  2.8204
  633ACTN    H3 6330   5.303   2.063   0.764  0.7575 -0.3896 -0.2246
  634ACTN    H6 6331   3.758   2.488   4.009  0.3060  0.0686  0.7231
  634ACTN    C3 6332   3.680   2.418   3.979  0.0266  0.6505  0.0905
  634ACTN    H4 6333   3.665   2.434   3.872  0.2590 -0.1582 -0.0617
  634ACTN    H5 6334   3.716   2.317   3.997 -0.6794  0.3162 -0.3296
  634ACTN    C2 6335   3.555   2.432   4.069  0.1727 -0.4600  0.0434
  634ACTN    O1 6336   3.470   2.345   4.043  0.1898 -0.2682  0.4437
  634ACTN    C1 6337   3.509   2.565   4.136  0.6061 -0.0868  0.8067
  634ACTN    H1 6338   3.591   2.637   4.138  0.5320 -0.0241  1.7021
  634ACTN    H2 6339   3.473   2.539   4.235  1.8967  2.0101  1.8546
  634ACTN    H3 6340   3.419   2.600   4.085 -0.4487 -2.1051  1.2463
  635ACTN    H6 6341   7.325   6.804   3.698 -1.4634 -2.4159 -2.6696
  635ACTN    C3 6342   7.421   6.755   3.710 -0.6995 -0.2736  0.5959
  635ACTN    H4 6343   7.477   6.781   3.800  0.1388 -0.8672  0.2513
  635ACTN    H5 6344   7.401   6.648   3.717  0.9098 -0.5890  0.4615
  635ACTN    C2 6345   7.514   6.783   3.593  0.7243  0.0130 -0.1075
  635ACTN    O1 6346   7.498   6.875   3.509  0.0574  0.2568  0.0975
  635ACTN    C1 6347   7.641   6.702   3.593 -0.2115  0.1033  0.1468
  635ACTN    H1 6348   7.723   6.773   3.598 -0.4695  0.4380 -0.4060
  635ACTN    H2 6349   7.653   6.642   3.502  2.9201  1.7462 -0.5663
  635ACTN    H3 6350   7.642   6.640   3.683 -1.0819  1.0026  0.7910
  636ACTN    H6 6351   2.966   0.560   5.252 -0.6480  1.0662  3.0385
  636ACTN    C3 6352   2.872   0.506   5.262 -0.4854  0.1575  0.0455
  636ACTN    H4 6353   2.863   0.414   5.204 -1.1000 -0.0434  0.4582
  636ACTN    H5 6354   2.860   0.482   5.368 -0.2650  0.2568  0.0922
  636ACTN    C2 6355   2.777   0.607   5.205 -0.1291 -0.2617  0.0309
  636ACTN    O1 6356   2.679   0.644   5.263  0.4349 -1.0166 -0.1056
  636ACTN    C1 6357   2.798   0.641   5.056  0.0961  0.0686 -0.0701
  636ACTN    H1 6358   2.714   0.688   5.005  0.4355  0.7994  0.0330
  636ACTN    H2 6359   2.799   0.543   5.009  0.4567 -0.2771  0.6531
  636ACTN    H3 6360   2.888   0.699   5.035  0.4538 -0.9080 -1.3523
  637ACTN    H6 6361   5.092   4.365   6.807 -0.6779 -0.1573  0.1149
  637ACTN    C3 6362   5.031   4.443   6.853 -0.4680 -0.0431  0.2010
  637ACTN    H4 6363   5.070   4.542   6.829  1.4003 -0.6850  0.5337
  637ACTN    H5 6364   4.930   4.422   6.817  0.5625  0.8042 -3.4874
  637ACTN    C2 6365   5.035   4.417   6.999 -0.2103  0.0895  0.1983
  637ACTN    O1 6366   5.086   4.310   7.036 -0.1553  0.2842 -1.0527
  637ACTN    C1 6367   4.957   4.504   7.093  0.1496  1.5994  0.8166
  637ACTN    H1 6368   4.851   4.492   7.069  0.9835 -1.6434 -1.7296
  637ACTN    H2 6369   4.976   4.611   7.082  1.4830  1.2365 -0.6444
  637ACTN    H3 6370   4.963   4.475   7.198 -0.6599  0.4156  0.5513
  638ACTN    H6 6371   0.885   2.453   4.491  0.0728 -0.8439 -2.9524
  638ACTN    C3 6372   0.988   2.446   4.527 -0.7706 -0.4742 -0.3419
  638ACTN    H4 6373   1.055   2.495   4.457  1.1231 -0.1152  1.6736
  638ACTN    H5 6374   0.994   2.503   4.620  1.4393 -0.8610 -0.2389
  638ACTN    C2 6375   1.042   2.308   4.528 -0.1110 -0.6600  0.0739
  638ACTN    O1 6376   1.106   2.263   4.624 -0.1003  0.2093  0.4763
  638ACTN    C1 6377   1.002   2.216   4.415 -0.4152  0.7952  0.3066
  638ACTN    H1 6378   1.083   2.157   4.372 -0.9914  0.6884 -0.6448
  638ACTN    H2 6379   0.959   2.282   4.340 -0.7352  0.5142  0.2413
  638ACTN    H3 6380   0.926   2.145   4.448  1.7280 -1.6515  0.1362
  639ACTN    H6 6381   1.568   1.320   4.411  1.8975 -0.5426  1.5336
  639ACTN    C3 6382   1.536   1.418   4.447 -0.5483 -0.7234  0.0324
  639ACTN    H4 6383   1.433   1.411   4.481 -0.8584  1.1649 -0.4675
  639ACTN    H5 6384   1.592   1.440   4.538  1.0247 -1.0224 -0.8363
  639ACTN    C2 6385   1.545   1.544   4.354 -0.7529  0.7624 -0.4306
  639ACTN    O1 6386   1.570   1.530   4.236  0.2793  0.4110 -0.0269
  639ACTN    C1 6387   1.524   1.676   4.408  0.4186 -0.1427  0.1860
  639ACTN    H1 6388   1.535   1.672   4.516  3.0823 -0.7458 -0.0884
  639ACTN    H2 6389   1.426   1.714   4.378  0.9951  0.6074 -0.7584
  639ACTN    H3 6390   1.602   1.739   4.366  1.2558 -0.1092  1.7717
  640ACTN    H6 6391   4.104   0.366   3.913 -2.6579  1.9878  1.5758
  640ACTN    C3 6392   4.072   0.280   3.972 -0.6701 -0.0599 -0.2290
  640ACTN    H4 6393   3.994   0.304   4.045  1.0994  2.2852  0.9535
  640ACTN    H5 6394   4.025   0.216   3.898 -0.7485 -1.8976  1.3724
  640ACTN    C2 6395   4.183   0.210   4.048  0.6572 -0.1092  0.3253
  640ACTN    O1 6396   4.152   0.134   4.136  0.3533  0.7771 -0.4531
  640ACTN    C1 6397   4.325   0.236   4.008 -0.6563 -0.0300  0.3921
  640ACTN    H1 6398   4.357   0.321   4.066 -0.9730 -0.9481  1.9282
  640ACTN    H2 6399   4.326   0.275   3.906  0.2171 -0.2500  0.3151
  640ACTN    H3 6400   4.389   0.148   4.020 -0.7449 -0.2068 -0.3923
  641ACTN    H6 6401   2.111   0.588   4.472  1.6298 -0.7513 -0.7014
  641ACTN    C3 6402   2.121   0.695   4.459  0.2268 -0.5525 -0.2306
  641ACTN    H4 6403   2.027   0.749   4.447  0.0289  0.0721  3.6134
  641ACTN    H5 6404   2.155   0.728   4.557 -1.4807  0.5315  0.0133
  641ACTN    C2 6405   2.219   0.729   4.349 -0.4192 -0.5245  0.0496
  641ACTN    O1 6406   2.189   0.818   4.272  0.5080  0.4334  0.5624
  641ACTN    C1 6407   2.359   0.677   4.359  0.1755 -0.0733  0.3385
  641ACTN    H1 6408   2.433   0.757   4.357 -0.1280  0.1819 -2.7112
  641ACTN    H2 6409   2.388   0.604   4.282  5.0518  1.4042  0.5960
  641ACTN    H3 6410   2.374   0.621   4.451 -0.0252  0.0972  0.4736
  642ACTN    H6 6411   1.807   5.050   6.178  1.8483  1.2818  0.1709
  642ACTN    C3 6412   1.735   5.129   6.195  0.1808 -0.1434 -0.1446
  642ACTN    H4 6413   1.658   5.098   6.265  0.8683  0.9200  1.1042
  642ACTN    H5 6414   1.691   5.149   6.097 -2.1976  0.3211  0.9666
  642ACTN    C2 6415   1.815   5.244   6.247  0.1946  0.1689 -0.3157
  642ACTN    O1 6416   1.933   5.259   6.212  0.3958 -0.1249  0.1135
  642ACTN    C1 6417   1.751   5.355   6.327 -0.0623 -0.4386  0.4410
  642ACTN    H1 6418   1.646   5.372   6.302  0.3820  0.2705 -0.9762
  642ACTN    H2 6419   1.803   5.450   6.317 -0.2910 -0.1276  2.0567
  642ACTN    H3 6420   1.752   5.331   6.434  2.2931  0.4841  0.6598
  643ACTN    H6 6421   0.362   1.851   5.233  1.0200  0.4075  0.1945
  643ACTN    C3 6422   0.357   1.911   5.142  0.1651  0.4524  0.2681
  643ACTN    H4 6423   0.387   1.848   5.058 -0.5780  0.8510 -0.3031
  643ACTN    H5 6424   0.250   1.929   5.134 -0.1256 -2.2495 -4.3373
  643ACTN    C2 6425   0.449   2.035   5.164  0.0020 -0.3754 -0.5005
  643ACTN    O1 6426   0.433   2.144   5.112  0.1753 -0.0797  0.2464
  643ACTN    C1 6427   0.557   2.007   5.263 -0.1371 -0.4379 -0.5213
  643ACTN    H1 6428   0.630   1.932   5.232  0.9649  0.6290 -0.5755
  643ACTN    H2 6429   0.508   1.964   5.349 -2.4071  1.3217 -0.8987
  643ACTN    H3 6430   0.618   2.092   5.294  0.5175 -1.2492  0.4620
  644ACTN    H6 6431   6.694   1.403   3.844  0.2899 -1.1180  1.3534
  644ACTN    C3 6432   6.749   1.486   3.890 -0.7810  0.1476  0.4066
  644ACTN    H4 6433   6.809   1.545   3.820 -0.9019  1.3972  1.3485
  644ACTN    H5 6434   6.674   1.543   3.943  1.0755 -0.5489  3.9550
  644ACTN    C2 6435   6.849   1.429   3.984 -0.3480  0.1040 -0.1239
  644ACTN    O1 6436   6.801   1.398   4.092  0.2608 -0.2856 -0.4841
  644ACTN    C1 6437   6.981   1.382   3.950 -0.5437  0.3316  0.2611
  644ACTN    H1 6438   6.980   1.273   3.949  1.4476  0.3087 -0.1138
  644ACTN    H2 6439   7.049   1.427   4.022 -1.1961  2.0786 -0.1776
  644ACTN    H3 6440   6.998   1.424   3.850  0.3625 -1.2187 -0.2441
  645ACTN    H6 6441   5.993   0.891   5.604  0.0704 -0.5707 -0.5343
  645ACTN    C3 6442   5.933   0.934   5.685  0.2193 -0.3967 -0.5144
  645ACTN    H4 6443   5.963   0.883   5.776  0.2577 -0.2629 -0.4524
  645ACTN    H5 6444   5.958   1.039   5.697  0.8996 -0.6251  0.0630
  645ACTN    C2 6445   5.788   0.906   5.656 -1.2440 -0.3945 -0.0483
  645ACTN    O1 6446   5.706   0.998   5.646  0.0065  0.1096  0.3559
  645ACTN    C1 6447   5.749   0.763   5.658  0.3989 -0.0904 -1.0442
  645ACTN    H1 6448   5.647   0.740   5.627 -0.0775  2.4431 -1.4307
  645ACTN    H2 6449   5.767   0.715   5.754  0.6063  1.5974 -0.2176
  645ACTN    H3 6450   5.819   0.712   5.591  3.2452 -1.2137  2.6087
  646ACTN    H6 6451   6.681   6.029   0.814  1.2743  0.1346  2.2739
  646ACTN    C3 6452   6.635   6.127   0.827 -0.1268 -0.2026  0.1263
  646ACTN    H4 6453   6.536   6.110   0.871 -0.1764 -0.3604 -0.0442
  646ACTN    H5 6454   6.700   6.177   0.898  0.3442 -1.3473  0.5175
  646ACTN    C2 6455   6.629   6.188   0.687  0.8341  0.0057 -0.1394
  646ACTN    O1 6456   6.601   6.307   0.661  0.2515  0.1139  0.7682
  646ACTN    C1 6457   6.676   6.095   0.574 -0.0078 -0.3199 -0.0660
  646ACTN    H1 6458   6.749   6.023   0.611 -0.3392  0.2515  1.7745
  646ACTN    H2 6459   6.711   6.154   0.490  0.4873 -1.7137 -0.8530
  646ACTN    H3 6460   6.599   6.029   0.535  1.2948 -0.3578 -2.6755
  647ACTN    H6 6461   4.505   4.492   0.779  2.0174 -0.3469 -0.4227
  647ACTN    C3 6462   4.528   4.569   0.853  0.1584  0.0817 -0.2751
  647ACTN    H4 6463   4.579   4.511   0.930  2.1300  2.3015  0.1339
  647ACTN    H5 6464   4.599   4.639   0.810 -0.3375  0.1754 -0.9563
  647ACTN    C2 6465   4.410   4.635   0.905  0.5210  0.2190  0.1325
  647ACTN    O1 6466   4.325   4.577   0.974 -0.1037  0.5934  0.1231
  647ACTN    C1 6467   4.399   4.786   0.882  0.1900  0.7584 -0.1825
  647ACTN    H1 6468   4.334   4.799   0.796  0.1006 -3.0138 -0.7656
  647ACTN    H2 6469   4.497   4.830   0.868  1.9331 -3.5250 -2.1187
  647ACTN    H3 6470   4.360   4.850   0.962 -1.7421 -0.9154  0.2600
  648ACTN    H6 6471   3.721   1.365   3.797  0.7131 -0.1478  0.2395
  648ACTN    C3 6472   3.669   1.454   3.834  0.3797 -0.1013 -0.3274
  648ACTN    H4 6473   3.725   1.501   3.915  0.4441  0.0399 -0.4538
  648ACTN    H5 6474   3.671   1.526   3.752  0.8523  0.1824 -0.0715
  648ACTN    C2 6475   3.526   1.428   3.878  0.1681 -0.8458 -0.6080
  648ACTN    O1 6476   3.515   1.407   3.999  0.0135 -0.9459  0.1801
  648ACTN    C1 6477   3.421   1.444   3.774 -0.8193 -0.3353 -0.2320
  648ACTN    H1 6478   3.444   1.532   3.713  0.0648 -0.4470 -0.0592
  648ACTN    H2 6479   3.324   1.467   3.818 -0.8022 -1.7547  0.5564
  648ACTN    H3 6480   3.416   1.358   3.708  2.7283  0.8597 -2.1898
  649ACTN    H6 6481   1.672   0.485   2.233  1.0637  1.8389 -0.8296
  649ACTN    C3 6482   1.716   0.551   2.309  0.7854  0.8098  0.2340
  649ACTN    H4 6483   1.643   0.630   2.325  1.1673  1.0803  0.6368
  649ACTN    H5 6484   1.735   0.487   2.395  0.2160 -1.0591 -1.0008
  649ACTN    C2 6485   1.842   0.614   2.261 -0.7765  0.1648 -0.5153
  649ACTN    O1 6486   1.933   0.549   2.225  0.7214  0.3620  0.3951
  649ACTN    C1 6487   1.852   0.768   2.264 -0.3964 -0.5156 -0.1981
  649ACTN    H1 6488   1.916   0.785   2.350  0.2841 -1.3019 -0.5424
  649ACTN    H2 6489   1.754   0.815   2.265  0.2295  0.8191  1.1134
  649ACTN    H3 6490   1.911   0.808   2.181  0.0336  0.5191  0.5947
  650ACTN    H6 6491   0.309   5.075   6.810  2.0860 -0.1762  1.2724
  650ACTN    C3 6492   0.313   5.184   6.811  0.4908 -0.0952  0.4014
  650ACTN    H4 6493   0.210   5.219   6.809  0.5500  0.1799  2.0059
  650ACTN    H5 6494   0.346   5.217   6.909 -1.7179  1.7467  0.5735
  650ACTN    C2 6495   0.405   5.242   6.702 -0.4585 -0.5608 -0.3243
  650ACTN    O1 6496   0.363   5.220   6.593  0.1004  0.3576  0.2176
  650ACTN    C1 6497   0.505   5.337   6.735 -0.2570 -0.1827 -0.3126
  650ACTN    H1 6498   0.601   5.297   6.702 -0.5034 -0.5469 -0.5894
  650ACTN    H2 6499   0.512   5.348   6.843 -1.0330  0.9008 -0.3607
  650ACTN    H3 6500   0.490   5.432   6.684  0.4402  0.7417  1.1618
  651ACTN    H6 6501   0.862   0.406   6.526  0.4179  0.7133 -0.9514
  651ACTN    C3 6502   0.908   0.441   6.619  0.7199 -0.2953 -0.7164
  651ACTN    H4 6503   0.931   0.357   6.684  0.5338  0.3707  0.2180
  651ACTN    H5 6504   1.000   0.493   6.594 -1.2801  2.9881 -1.5876
  651ACTN    C2 6505   0.810   0.531   6.689  0.8322  1.0897  0.4402
  651ACTN    O1 6506   0.841   0.640   6.741  0.1078  0.4119  0.2102
  651ACTN    C1 6507   0.674   0.469   6.715 -0.3625  0.1307 -0.0328
  651ACTN    H1 6508   0.649   0.472   6.821 -0.6172 -0.3652 -0.0770
  651ACTN    H2 6509   0.682   0.364   6.686 -0.1623 -0.2052  1.1984
  651ACTN    H3 6510   0.591   0.510   6.658 -0.8319 -0.3018  0.3365
  652ACTN    H6 6511   4.911   4.859   7.157  0.2203 -1.8509  0.4580
  652ACTN    C3 6512   4.905   4.921   7.246  0.0920  0.1057 -0.8774
  652ACTN    H4 6513   4.913   5.027   7.221 -2.0818  0.7197  0.8627
  652ACTN    H5 6514   4.985   4.895   7.316 -1.4826 -0.1265  0.8873
  652ACTN    C2 6515   4.776   4.884   7.310 -0.0924 -0.4203 -0.1755
  652ACTN    O1 6516   4.677   4.950   7.287  0.9213 -0.8765 -0.4151
  652ACTN    C1 6517   4.762   4.750   7.368 -0.1781  0.3416  0.4296
  652ACTN    H1 6518   4.670   4.700   7.338  0.3062 -0.5961  0.4989
  652ACTN    H2 6519   4.762   4.753   7.477 -1.4708 -0.1336  0.4559
  652ACTN    H3 6520   4.845   4.688   7.335  0.2687  1.0250  0.2613
  653ACTN    H6 6521   3.820   2.235   0.205  0.7523 -0.2588 -1.1233
  653ACTN    C3 6522   3.798   2.341   0.217 -0.3007 -0.5877 -0.0255
  653ACTN    H4 6523   3.693   2.362   0.237 -0.3118  0.0640 -0.7429
  653ACTN    H5 6524   3.858   2.381   0.299  0.5687  1.4971 -1.6166
  653ACTN    C2 6525   3.847   2.418   0.089  0.1891 -0.2695 -0.3911
  653ACTN    O1 6526   3.905   2.350   0.005 -0.2392  0.1927  0.3804
  653ACTN    C1 6527   3.823   2.569   0.077 -0.0812  0.2005  0.4072
  653ACTN    H1 6528   3.916   2.622   0.097 -0.1538  0.0940  1.0438
  653ACTN    H2 6529   3.741   2.600   0.142  0.0492 -1.4002  1.3852
  653ACTN    H3 6530   3.791   2.576  -0.027 -1.9686 -0.2770  0.9297
  654ACTN    H6 6531   3.192   3.384   2.658 -1.3002 -0.2864 -0.7173
  654ACTN    C3 6532   3.163   3.485   2.628 -0.1695  0.5180  0.8117
  654ACTN    H4 6533   3.075   3.479   2.563 -0.0103  0.9266  0.5562
  654ACTN    H5 6534   3.131   3.528   2.723 -0.4360  1.1400  0.4390
  654ACTN    C2 6535   3.277   3.553   2.576 -0.1535  0.0398  1.1016
  654ACTN    O1 6536   3.385   3.514   2.613  0.1011  0.1611  0.4760
  654ACTN    C1 6537   3.265   3.640   2.456  0.2328  0.5334  0.0883
  654ACTN    H1 6538   3.172   3.619   2.404 -0.4260  3.2996  0.0747
  654ACTN    H2 6539   3.348   3.623   2.387 -1.1230  0.3810 -1.5166
  654ACTN    H3 6540   3.262   3.745   2.485 -1.2576  1.2074 -2.4032
  655ACTN    H6 6541   6.831   6.747   4.302  0.1608  1.2440  1.2842
  655ACTN    C3 6542   6.730   6.785   4.284  0.1020  0.4378 -0.1900
  655ACTN    H4 6543   6.745   6.891   4.259  1.2065 -0.0282 -1.5955
  655ACTN    H5 6544   6.694   6.728   4.199  1.3102 -0.9764  0.2255
  655ACTN    C2 6545   6.651   6.762   4.413 -0.4886 -0.3028 -0.0044
  655ACTN    O1 6546   6.556   6.681   4.416 -0.2224 -0.2035 -0.4556
  655ACTN    C1 6547   6.682   6.850   4.527 -0.0517 -0.0861 -0.2592
  655ACTN    H1 6548   6.789   6.870   4.527  0.0117 -0.3506 -2.1072
  655ACTN    H2 6549   6.648   6.814   4.624 -0.3486 -0.3782 -0.4707
  655ACTN    H3 6550   6.624   6.942   4.521  0.1521  0.1779  1.5177
  656ACTN    H6 6551   7.197   1.181   4.110  0.8917  0.8877  1.9775
  656ACTN    C3 6552   7.290   1.210   4.061  0.0711 -0.0595 -0.1984
  656ACTN    H4 6553   7.318   1.310   4.095  3.7692 -1.0406 -0.1794
  656ACTN    H5 6554   7.368   1.139   4.085  1.8018  1.0207 -2.4524
  656ACTN    C2 6555   7.265   1.202   3.917  0.3624  0.4573 -0.0266
  656ACTN    O1 6556   7.280   1.299   3.847  0.4450  0.1375 -0.3251
  656ACTN    C1 6557   7.243   1.074   3.850 -0.3960  0.5106  0.2333
  656ACTN    H1 6558   7.262   0.989   3.915 -2.4927  1.5105  2.2369
  656ACTN    H2 6559   7.293   1.069   3.754  1.2446 -0.5050  1.1224
  656ACTN    H3 6560   7.137   1.063   3.827 -0.4466  1.7422 -0.1585
  657ACTN    H6 6561   3.050   7.018   3.189  1.0917 -0.7502  0.6531
  657ACTN    C3 6562   3.025   7.049   3.290  0.8665  0.4072  0.2541
  657ACTN    H4 6563   2.920   7.030   3.313  0.9042  0.0949  0.1673
  657ACTN    H5 6564   3.085   6.989   3.359  1.3106  0.5560 -0.0046
  657ACTN    C2 6565   3.053   7.193   3.311  0.2560  0.2539 -0.1058
  657ACTN    O1 6566   2.970   7.283   3.307  0.6795 -0.0295  0.7210
  657ACTN    C1 6567   3.196   7.220   3.330 -0.0778 -0.1587  0.0188
  657ACTN    H1 6568   3.244   7.183   3.240  1.1683  2.3321 -0.3826
  657ACTN    H2 6569   3.228   7.165   3.419 -1.5147 -1.5851 -0.3158
  657ACTN    H3 6570   3.216   7.327   3.335  2.3442 -0.6789  2.5747
  658ACTN    H6 6571   5.861   3.582   4.441  1.0225 -1.3952  0.4378
  658ACTN    C3 6572   5.939   3.635   4.387 -0.5717  1.1800  0.6099
  658ACTN    H4 6573   6.033   3.640   4.441  0.5754  1.3182 -1.3504
  658ACTN    H5 6574   5.901   3.733   4.357 -1.1266  0.9686  0.6198
  658ACTN    C2 6575   5.957   3.566   4.252 -0.1954 -0.4950 -0.4468
  658ACTN    O1 6576   6.014   3.461   4.247  0.3527  0.1449  0.0582
  658ACTN    C1 6577   5.888   3.621   4.129  0.1508  0.0607 -0.6815
  658ACTN    H1 6578   5.964   3.657   4.059  0.0359  1.3885 -0.1335
  658ACTN    H2 6579   5.821   3.704   4.148 -0.1662 -0.6051  1.2303
  658ACTN    H3 6580   5.841   3.536   4.080 -0.7305  1.5290 -2.4324
  659ACTN    H6 6581   6.813   5.131   5.205  1.3558 -0.2457 -0.7964
  659ACTN    C3 6582   6.872   5.184   5.280 -0.3848  0.3459  0.1788
  659ACTN    H4 6583   6.838   5.288   5.287 -1.7539 -0.0075 -0.8919
  659ACTN    H5 6584   6.852   5.127   5.370  0.8729  1.0487  0.9176
  659ACTN    C2 6585   7.025   5.182   5.261 -0.5440  0.1309 -0.4655
  659ACTN    O1 6586   7.081   5.261   5.181 -0.0286  0.0306  0.0143
  659ACTN    C1 6587   7.101   5.081   5.336 -0.3636  0.0324  0.6720
  659ACTN    H1 6588   7.196   5.055   5.288 -2.0705 -0.5400 -2.5149
  659ACTN    H2 6589   7.044   4.989   5.349  1.6910 -1.2563  0.8257
  659ACTN    H3 6590   7.135   5.122   5.431  0.0113  0.5987  0.2903
  660ACTN    H6 6591   7.319   2.042   0.919  0.8477  0.0915 -1.2273
  660ACTN    C3 6592   7.377   1.972   0.979 -0.1824  0.9734  0.8559
  660ACTN    H4 6593   7.479   2.012   0.980 -0.0037  0.5630 -0.0798
  660ACTN    H5 6594   7.350   1.982   1.084 -0.2062 -0.6336  1.0103
  660ACTN    C2 6595   7.368   1.832   0.931 -0.1768  0.9817 -0.2093
  660ACTN    O1 6596   7.460   1.772   0.887 -0.1190  0.2652  1.0507
  660ACTN    C1 6597   7.246   1.748   0.952 -0.2651  0.4239 -0.2496
  660ACTN    H1 6598   7.259   1.670   1.028  0.9615  0.2651 -0.6040
  660ACTN    H2 6599   7.215   1.701   0.859 -1.6917  0.9374 -0.0397
  660ACTN    H3 6600   7.157   1.808   0.972  0.5185  0.8509  2.2469
  661ACTN    H6 6601   3.593   2.243   5.456 -0.1454 -1.4288  0.8067
  661ACTN    C3 6602   3.548   2.173   5.385 -0.2961 -0.8363  0.3083
  661ACTN    H4 6603   3.566   2.068   5.410 -1.7882 -1.2871 -0.4895
  661ACTN    H5 6604   3.443   2.201   5.383 -0.3533 -1.1022 -0.3389
  661ACTN    C2 6605   3.614   2.189   5.248  0.0358 -0.4591 -0.9862
  661ACTN    O1 6606   3.543   2.194   5.151  0.2129  0.0801 -0.2564
  661ACTN    C1 6607   3.759   2.173   5.246 -0.6012  0.2258 -0.0964
  661ACTN    H1 6608   3.789   2.158   5.142 -1.6689  0.1932 -0.4005
  661ACTN    H2 6609   3.784   2.080   5.297 -4.1217  0.0455  1.4396
  661ACTN    H3 6610   3.806   2.262   5.290  0.1548  0.4773 -1.3840
  662ACTN    H6 6611   4.515   6.228   5.926 -0.1496 -1.4081  0.2495
  662ACTN    C3 6612   4.450   6.250   5.842 -0.3754 -0.3267  0.6993
  662ACTN    H4 6613   4.473   6.351   5.808  0.0644 -0.6487  0.0212
  662ACTN    H5 6614   4.467   6.174   5.766  1.6678  2.2374 -1.5339
  662ACTN    C2 6615   4.299   6.251   5.868  0.2208  0.5272  0.0564
  662ACTN    O1 6616   4.239   6.145   5.857  0.3330 -0.0568 -0.1581
  662ACTN    C1 6617   4.230   6.388   5.878  0.4786 -0.2667  0.0694
  662ACTN    H1 6618   4.163   6.400   5.793  0.4158 -0.7443  0.0498
  662ACTN    H2 6619   4.304   6.466   5.864 -0.1952  0.0427 -1.7949
  662ACTN    H3 6620   4.172   6.410   5.968  2.4407 -0.2517  1.3492
  663ACTN    H6 6621   5.242   4.161   5.871 -1.4663  0.6727 -0.3685
  663ACTN    C3 6622   5.230   4.053   5.862 -0.8219  0.5116  0.5097
  663ACTN    H4 6623   5.301   3.995   5.920 -0.1118  1.3195  0.4620
  663ACTN    H5 6624   5.132   4.022   5.899  0.0370  1.1482  3.3663
  663ACTN    C2 6625   5.223   4.025   5.717  0.3387 -0.1883  0.4035
  663ACTN    O1 6626   5.189   4.112   5.638  0.1601 -0.1703  0.1425
  663ACTN    C1 6627   5.225   3.877   5.679  0.0509 -0.2179 -0.0370
  663ACTN    H1 6628   5.133   3.853   5.627  0.8223 -1.1328 -1.0164
  663ACTN    H2 6629   5.237   3.809   5.763 -0.0966 -2.0124 -1.4502
  663ACTN    H3 6630   5.307   3.856   5.610 -0.4260  0.9268 -0.9673
  664ACTN    H6 6631   1.528   5.260   4.000 -2.5289 -1.4662  0.1870
  664ACTN    C3 6632   1.510   5.261   3.893 -0.5135  0.3177 -0.1706
  664ACTN    H4 6633   1.581   5.191   3.848 -0.6408 -0.5001  0.8848
  664ACTN    H5 6634   1.412   5.215   3.879  0.1301 -1.2456  0.3602
  664ACTN    C2 6635   1.513   5.396   3.829 -0.3064  0.7716  0.3957
  664ACTN    O1 6636   1.608   5.465   3.838 -0.0303 -0.3162  0.1879
  664ACTN    C1 6637   1.398   5.426   3.739 -0.1456  0.5533  0.8230
  664ACTN    H1 6638   1.376   5.344   3.671  2.6112 -0.4211  1.0325
  664ACTN    H2 6639   1.428   5.507   3.674 -3.3275  1.7962  0.7996
  664ACTN    H3 6640   1.310   5.466   3.789 -0.5565  1.6742 -0.7623
  665ACTN    H6 6641   0.494   0.164   6.902 -0.3511 -2.6828  1.2053
  665ACTN    C3 6642   0.430   0.124   6.823 -0.2815 -0.0548 -0.2383
  665ACTN    H4 6643   0.500   0.101   6.743  2.0647  1.7578  1.1892
  665ACTN    H5 6644   0.374   0.035   6.850 -0.6420  0.5149  0.9605
  665ACTN    C2 6645   0.321   0.219   6.782  0.3068  0.4020 -0.1098
  665ACTN    O1 6646   0.330   0.281   6.673  0.2763 -0.3876 -0.0854
  665ACTN    C1 6647   0.201   0.225   6.871 -0.2319 -0.0568 -1.1322
  665ACTN    H1 6648   0.209   0.294   6.956  0.3272  0.2144 -1.4070
  665ACTN    H2 6649   0.184   0.127   6.914  0.4413 -1.4087 -3.8753
  665ACTN    H3 6650   0.109   0.260   6.822 -0.3454  0.2057 -0.7373
  666ACTN    H6 6651   1.473   6.641   7.331  0.7739  0.5967  1.0274
  666ACTN    C3 6652   1.498   6.713   7.253 -0.2557  0.1730  0.2910
  666ACTN    H4 6653   1.564   6.784   7.303 -0.3106  0.4250  0.0050
  666ACTN    H5 6654   1.554   6.662   7.174  1.0730 -1.0788  2.0093
  666ACTN    C2 6655   1.376   6.782   7.198  0.3902  0.4630  0.2905
  666ACTN    O1 6656   1.305   6.853   7.263  0.4924  0.6702 -0.5839
  666ACTN    C1 6657   1.366   6.782   7.041 -0.5069 -0.6638 -0.0232
  666ACTN    H1 6658   1.291   6.851   7.002 -0.8701 -1.2727 -0.4135
  666ACTN    H2 6659   1.340   6.684   7.000  2.2839 -1.2923 -0.3750
  666ACTN    H3 6660   1.460   6.811   6.995  0.3870 -1.2600  1.3984
  667ACTN    H6 6661   0.549   5.093   7.061  0.0361  2.1757  1.0051
  667ACTN    C3 6662   0.513   5.038   7.148 -0.2389 -0.3071 -0.6397
  667ACTN    H4 6663   0.505   4.932   7.124 -1.8157 -0.5895  1.0127
  667ACTN    H5 6664   0.588   5.058   7.224  1.4694  0.9637 -2.6058
  667ACTN    C2 6665   0.381   5.088   7.185  0.4621 -0.6265  0.4172
  667ACTN    O1 6666   0.286   5.068   7.109  0.9161  0.3997  0.7471
  667ACTN    C1 6667   0.360   5.130   7.327  0.2580  0.6168 -0.0779
  667ACTN    H1 6668   0.277   5.072   7.369 -0.3850  1.1129 -0.6498
  667ACTN    H2 6669   0.331   5.235   7.333  1.4697  1.2056 -3.4488
  667ACTN    H3 6670   0.451   5.122   7.387  1.6770 -0.0780 -2.2690
  668ACTN    H6 6671   7.336   5.452   3.925 -2.2690  2.5634  1.4523
  668ACTN    C3 6672   7.408   5.534   3.928 -0.2243  0.9497 -0.6544
  668ACTN    H4 6673   7.490   5.499   3.991 -0.6566  0.2076 -0.4996
  668ACTN    H5 6674   7.450   5.544   3.828  1.7955 -2.5962 -0.2238
  668ACTN    C2 6675   7.358   5.654   3.984 -0.7204  0.1188  0.2788
  668ACTN    O1 6676   7.324   5.665   4.104  0.0023 -0.2943 -0.0734
  668ACTN    C1 6677   7.366   5.768   3.889  0.1253  0.0729  0.0559
  668ACTN    H1 6678   7.465   5.785   3.846 -0.1522  2.6484  0.3546
  668ACTN    H2 6679   7.341   5.862   3.938  0.7912  0.6348 -0.6622
  668ACTN    H3 6680   7.298   5.748   3.806 -0.9067  2.8494  0.1801
  669ACTN    H6 6681   6.284   7.012   2.019 -1.4045  1.3970  0.7105
  669ACTN    C3 6682   6.273   7.027   1.911  0.6543 -0.0337  0.2704
  669ACTN    H4 6683   6.174   6.993   1.880  0.8690  1.1353 -1.7410
  669ACTN    H5 6684   6.281   7.135   1.900  2.0887 -0.1363  0.1954
  669ACTN    C2 6685   6.377   6.950   1.837 -0.2475 -0.5804  0.2070
  669ACTN    O1 6686   6.357   6.827   1.815  0.2353  0.2929  0.4870
  669ACTN    C1 6687   6.507   7.003   1.793  0.0385 -0.2062 -0.0615
  669ACTN    H1 6688   6.555   7.062   1.871  0.5717 -1.9807  0.9899
  669ACTN    H2 6689   6.485   7.062   1.704  0.6140  0.4937  0.2578
  669ACTN    H3 6690   6.573   6.925   1.756 -0.3787  0.0345 -1.3640
  670ACTN    H6 6691   4.354   4.947   5.123 -0.9919 -0.2850  0.2046
  670ACTN    C3 6692   4.267   4.939   5.057 -0.6244  1.1141 -0.4760
  670ACTN    H4 6693   4.254   4.831   5.057  0.0101  1.0157  1.3273
  670ACTN    H5 6694   4.176   4.979   5.101 -0.0412 -1.6037  3.4283
  670ACTN    C2 6695   4.304   4.977   4.923  0.5733 -0.5813  0.1838
  670ACTN    O1 6696   4.421   4.975   4.892  0.2899  0.0198 -0.1069
  670ACTN    C1 6697   4.204   4.972   4.818  0.1571 -0.0309  0.6897
  670ACTN    H1 6698   4.113   4.933   4.865 -0.0464 -0.6085 -0.1872
  670ACTN    H2 6699   4.231   4.909   4.734 -1.5367  0.5631 -0.3399
  670ACTN    H3 6700   4.180   5.074   4.788  1.3506  0.0755  0.0903
  671ACTN    H6 6701   0.149   6.651   2.474  0.3095 -0.8488  0.5135
  671ACTN    C3 6702   0.079   6.568   2.489  0.0247 -0.6642  0.2079
  671ACTN    H4 6703   0.147   6.484   2.506  0.6957 -0.6855 -2.4113
  671ACTN    H5 6704   0.025   6.580   2.583 -0.8547 -3.0324  0.0353
  671ACTN    C2 6705  -0.011   6.552   2.375 -0.6416  0.4193  0.2176
  671ACTN    O1 6706  -0.097   6.465   2.380 -0.1751 -0.0628  0.5476
  671ACTN    C1 6707   0.008   6.631   2.253  0.7392 -0.0976 -0.2678
  671ACTN    H1 6708  -0.072   6.705   2.249 -0.3581 -1.2324  0.3023
  671ACTN    H2 6709  -0.001   6.578   2.158  0.1920 -1.0046  0.2820
  671ACTN    H3 6710   0.108   6.671   2.241  0.3550  1.0356  0.2474
  672ACTN    H6 6711   4.644   7.025   2.282  0.1020  2.3721  1.1595
  672ACTN    C3 6712   4.676   7.049   2.181  0.6267 -0.4554  0.5972
  672ACTN    H4 6713   4.647   6.969   2.114  0.9335 -0.1324  0.0743
  672ACTN    H5 6714   4.618   7.132   2.142  1.6851 -1.1193 -2.5575
  672ACTN    C2 6715   4.821   7.079   2.171  0.0711  0.0995  0.7104
  672ACTN    O1 6716   4.870   7.176   2.228  0.5452 -0.1215 -0.1930
  672ACTN    C1 6717   4.906   7.013   2.071 -0.5439  0.5353 -0.0746
  672ACTN    H1 6718   4.880   7.046   1.971  0.0700 -0.9577 -0.7356
  672ACTN    H2 6719   4.880   6.908   2.082  1.0712 -0.1912 -2.7910
  672ACTN    H3 6720   5.009   7.035   2.100  0.0966 -1.7696 -0.5380
  673ACTN    H6 6721   0.466   2.245   3.308  0.2481  0.1136 -0.2329
  673ACTN    C3 6722   0.453   2.239   3.200 -0.9001  0.3317 -0.1185
  673ACTN    H4 6723   0.349   2.253   3.171 -0.3838  1.6087 -1.4412
  673ACTN    H5 6724   0.508   2.320   3.152  1.2745 -0.5650  0.8115
  673ACTN    C2 6725   0.503   2.113   3.143 -0.0646  0.0667  0.0880
  673ACTN    O1 6726   0.500   2.016   3.215  0.0378  0.4465  0.0232
  673ACTN    C1 6727   0.511   2.102   2.994  0.3797 -1.0308  0.6866
  673ACTN    H1 6728   0.498   2.203   2.954 -0.4989 -1.0783  0.8472
  673ACTN    H2 6729   0.443   2.032   2.946  2.3271 -1.9001 -0.8930
  673ACTN    H3 6730   0.612   2.068   2.972  0.5060  1.3567 -3.0200
  674ACTN    H6 6731   6.018   6.000   0.652  0.0982 -0.3987 -1.0782
  674ACTN    C3 6732   5.920   5.997   0.699  0.4478  0.6206 -0.2646
  674ACTN    H4 6733   5.839   6.034   0.638 -0.5749  0.5097  0.9944
  674ACTN    H5 6734   5.901   5.894   0.729  1.7590  0.2292 -0.7212
  674ACTN    C2 6735   5.915   6.085   0.826  0.1853  0.8026 -0.6332
  674ACTN    O1 6736   5.843   6.180   0.831 -0.2650 -0.8153  0.1637
  674ACTN    C1 6737   6.028   6.073   0.925 -0.2604 -0.3466 -0.0774
  674ACTN    H1 6738   5.987   6.003   0.998  1.4514 -0.7862  0.4818
  674ACTN    H2 6739   6.042   6.168   0.977  1.5886 -0.2392 -0.7506
  674ACTN    H3 6740   6.118   6.028   0.883  1.4163  1.0515  1.9316
  675ACTN    H6 6741   6.656   1.511   6.265  0.2585 -1.1548 -0.1296
  675ACTN    C3 6742   6.691   1.484   6.365  0.4505 -0.4290  0.0033
  675ACTN    H4 6743   6.794   1.454   6.347  0.0512 -0.5722 -2.2191
  675ACTN    H5 6744   6.688   1.576   6.423  0.1765 -0.8453  0.6627
  675ACTN    C2 6745   6.607   1.384   6.430  0.1151  0.5321  0.3081
  675ACTN    O1 6746   6.551   1.403   6.534  0.2322 -0.0670  0.0622
  675ACTN    C1 6747   6.571   1.263   6.357  0.3142  0.5138  0.2414
  675ACTN    H1 6748   6.633   1.249   6.268  1.4457  1.6720  0.8377
  675ACTN    H2 6749   6.466   1.270   6.329  0.4341  0.3292 -0.2621
  675ACTN    H3 6750   6.586   1.172   6.415 -0.8692 -1.7511 -2.8457
  676ACTN    H6 6751   0.548   0.617   3.467  1.9128  1.0790 -0.0689
  676ACTN    C3 6752   0.586   0.609   3.570 -0.2785  0.4718  0.7149
  676ACTN    H4 6753   0.530   0.681   3.629 -1.6546  1.3368 -1.5482
  676ACTN    H5 6754   0.555   0.508   3.598  1.2863 -0.9455 -2.3951
  676ACTN    C2 6755   0.735   0.622   3.593 -1.0404  0.3438  0.1643
  676ACTN    O1 6756   0.781   0.613   3.706 -0.8369  1.0198  0.3811
  676ACTN    C1 6757   0.814   0.675   3.472  0.0651 -0.2210  0.1826
  676ACTN    H1 6758   0.801   0.609   3.387 -1.6360  1.0037 -0.5217
  676ACTN    H2 6759   0.921   0.678   3.493  0.5866 -1.6779 -2.1448
  676ACTN    H3 6760   0.771   0.772   3.446 -1.3044 -1.2964 -1.6597
  677ACTN    H6 6761   0.055   6.055   4.531  0.3982  0.2692 -0.9330
  677ACTN    C3 6762  -0.050   6.084   4.534  0.3184 -0.0759 -0.1699
  677ACTN    H4 6763  -0.061   6.184   4.492 -1.6853 -0.9372 -1.7514
  677ACTN    H5 6764  -0.111   6.022   4.468 -0.4831  0.0940  0.3976
  677ACTN    C2 6765  -0.109   6.081   4.667 -0.6911 -0.0972  0.4815
  677ACTN    O1 6766  -0.051   6.036   4.765  0.4546 -0.1183  0.7374
  677ACTN    C1 6767  -0.238   6.157   4.686  0.2868 -0.3292 -0.8340
  677ACTN    H1 6768  -0.282   6.139   4.785  0.5118 -2.5185 -1.1044
  677ACTN    H2 6769  -0.310   6.126   4.611 -0.6439 -3.2492  1.1578
  677ACTN    H3 6770  -0.214   6.263   4.677 -0.4216  0.1502  2.2353
  678ACTN    H6 6771   0.470   4.309   3.748  0.5947  0.1810 -1.4714
  678ACTN    C3 6772   0.454   4.416   3.747 -0.3203  0.0548  0.0463
  678ACTN    H4 6773   0.383   4.438   3.667  0.0557 -1.0596 -0.5958
  678ACTN    H5 6774   0.412   4.430   3.847  2.6996 -0.0495  1.3550
  678ACTN    C2 6775   0.583   4.495   3.734 -0.2012 -0.6840 -0.5623
  678ACTN    O1 6776   0.585   4.617   3.760  0.5380  0.1034  0.6363
  678ACTN    C1 6777   0.715   4.418   3.717 -0.5428 -0.1110  0.1249
  678ACTN    H1 6778   0.693   4.315   3.687  1.3391 -0.2073 -0.9725
  678ACTN    H2 6779   0.771   4.423   3.811  2.1793  3.2752 -1.5680
  678ACTN    H3 6780   0.778   4.459   3.638 -1.5706  2.1011  0.4243
  679ACTN    H6 6781   0.101   5.199   2.210  0.1224  0.1493 -0.3835
  679ACTN    C3 6782   0.111   5.167   2.106  0.1136 -0.1536 -0.2901
  679ACTN    H4 6783   0.040   5.218   2.041  2.2468 -1.0752 -3.4434
  679ACTN    H5 6784   0.210   5.191   2.069  0.2020 -2.4502 -1.6502
  679ACTN    C2 6785   0.092   5.021   2.085 -0.2029  0.6746 -0.0830
  679ACTN    O1 6786   0.073   4.949   2.185  0.1338  0.6146  0.4008
  679ACTN    C1 6787   0.084   4.972   1.946  0.7683  0.2246  0.0451
  679ACTN    H1 6788   0.053   4.869   1.928 -0.2457  0.3454  1.0504
  679ACTN    H2 6789   0.182   4.992   1.901  0.7574  3.5000  1.3506
  679ACTN    H3 6790   0.017   5.030   1.883  0.7874  0.5113  0.2892
  680ACTN    H6 6791   2.011   6.204   0.750  0.8253  0.0476  0.7551
  680ACTN    C3 6792   2.007   6.311   0.769  0.2170  0.1158  0.2547
  680ACTN    H4 6793   1.905   6.348   0.783 -0.0381  0.2205 -1.7169
  680ACTN    H5 6794   2.073   6.338   0.851  3.1964  0.2565 -2.1150
  680ACTN    C2 6795   2.041   6.369   0.635 -0.2160 -0.5190 -0.4364
  680ACTN    O1 6796   1.982   6.335   0.531 -0.1409  0.1330  0.5400
  680ACTN    C1 6797   2.166   6.450   0.627  0.1766  0.3679 -0.2466
  680ACTN    H1 6798   2.255   6.388   0.625  0.2811  0.5341 -0.9254
  680ACTN    H2 6799   2.166   6.515   0.715 -0.0675 -2.0059  1.5691
  680ACTN    H3 6800   2.164   6.512   0.538  3.6195  3.5210  1.7375
  681ACTN    H6 6801   0.127   2.463   6.188  0.8006  0.6340  0.1549
  681ACTN    C3 6802   0.113   2.514   6.093  0.2526 -0.3211 -0.2761
  681ACTN    H4 6803   0.213   2.526   6.052  0.5011 -0.9416  0.1346
  681ACTN    H5 6804   0.064   2.437   6.033  0.5271 -0.2197 -0.6320
  681ACTN    C2 6805   0.035   2.636   6.112  0.1245  0.8151  0.0309
  681ACTN    O1 6806  -0.039   2.673   6.019  0.2151  0.6336  0.5153
  681ACTN    C1 6807   0.073   2.725   6.225  0.4137 -0.0730  1.1137
  681ACTN    H1 6808   0.001   2.803   6.248 -0.3858 -0.1421 -1.1064
  681ACTN    H2 6809   0.166   2.774   6.198  0.7759 -1.4665 -0.2455
  681ACTN    H3 6810   0.078   2.668   6.318  0.4866  0.4516  1.4303
  682ACTN    H6 6811   1.838   0.646   5.133 -1.1936  0.3549 -0.6698
  682ACTN    C3 6812   1.899   0.699   5.060  0.5432  0.0057  0.4857
  682ACTN    H4 6813   1.847   0.795   5.052  0.6957 -0.0776 -1.6389
  682ACTN    H5 6814   1.998   0.714   5.103  0.8493  0.0097 -0.2193
  682ACTN    C2 6815   1.889   0.630   4.928 -0.4444 -0.2027  0.0528
  682ACTN    O1 6816   1.785   0.578   4.898 -0.1605  0.4230 -0.4003
  682ACTN    C1 6817   2.008   0.625   4.828 -0.0066  0.0279  0.2102
  682ACTN    H1 6818   1.987   0.697   4.749  0.5728  0.3825  0.3699
  682ACTN    H2 6819   2.003   0.528   4.778  0.4913 -1.3376  2.7418
  682ACTN    H3 6820   2.110   0.633   4.866  0.3870  1.7707 -1.1393
  683ACTN    H6 6821   3.687   2.396   2.734 -0.3240 -1.3397  0.8717
  683ACTN    C3 6822   3.594   2.372   2.683  0.0496  0.0482 -0.5146
  683ACTN    H4 6823   3.589   2.449   2.607  1.9772  2.4040  1.6533
  683ACTN    H5 6824   3.592   2.280   2.625 -2.8824  0.2088 -0.7292
  683ACTN    C2 6825   3.480   2.368   2.784  0.3479 -0.0123  0.3053
  683ACTN    O1 6826   3.420   2.266   2.811 -0.4931 -0.1297  0.2239
  683ACTN    C1 6827   3.423   2.496   2.838 -0.4884  0.1265  0.4762
  683ACTN    H1 6828   3.490   2.581   2.827 -1.6599  1.2886  2.0553
  683ACTN    H2 6829   3.400   2.486   2.945  1.3198 -2.3744  0.6862
  683ACTN    H3 6830   3.330   2.520   2.786  0.1156 -0.4719 -0.8870
  684ACTN    H6 6831   3.017   6.123   3.482 -1.2286 -0.3047  1.7989
  684ACTN    C3 6832   3.045   6.017   3.478  0.0548  0.0757  0.1226
  684ACTN    H4 6833   2.956   5.957   3.458  0.0985  0.9452 -2.9212
  684ACTN    H5 6834   3.124   6.003   3.404 -0.0204  2.0650 -0.3732
  684ACTN    C2 6835   3.096   5.975   3.606  0.5886 -0.0121  0.0035
  684ACTN    O1 6836   3.056   6.035   3.704  0.3718  0.4403 -0.6284
  684ACTN    C1 6837   3.197   5.860   3.601  0.0061 -0.2014  0.7578
  684ACTN    H1 6838   3.205   5.829   3.497  0.3511 -0.1527  0.7693
  684ACTN    H2 6839   3.171   5.774   3.662 -1.7148  0.2910  0.7398
  684ACTN    H3 6840   3.286   5.909   3.641  0.3264  0.3939 -0.6299
  685ACTN    H6 6841   3.264   3.970   2.799  0.1158 -0.7058 -0.7263
  685ACTN    C3 6842   3.177   4.031   2.772 -0.0053 -0.5303  0.0596
  685ACTN    H4 6843   3.150   4.077   2.867  4.2493  0.1812  1.0322
  685ACTN    H5 6844   3.213   4.108   2.705 -1.3090  0.6943  0.7477
  685ACTN    C2 6845   3.064   3.952   2.710 -0.1286  0.2428 -0.0813
  685ACTN    O1 6846   3.086   3.833   2.690  0.1678  0.2345 -0.7718
  685ACTN    C1 6847   2.946   4.025   2.655  0.0556  0.3867  0.3158
  685ACTN    H1 6848   2.948   4.133   2.672 -0.7434  0.5161 -0.3543
  685ACTN    H2 6849   2.851   3.986   2.691  0.7731 -0.4098  1.3734
  685ACTN    H3 6850   2.943   4.015   2.547  0.7704  0.2092  0.3150
  686ACTN    H6 6851   5.005   4.480   3.700  0.0335  2.3251 -1.9875
  686ACTN    C3 6852   4.924   4.521   3.760  0.2279 -0.0214  0.0109
  686ACTN    H4 6853   4.832   4.467   3.737 -0.5519  0.0599  2.8191
  686ACTN    H5 6854   4.946   4.508   3.865  1.7104  2.6884  0.0983
  686ACTN    C2 6855   4.895   4.667   3.718 -0.7155  0.3634 -0.2593
  686ACTN    O1 6856   4.985   4.733   3.660  0.2044  0.3481 -0.2646
  686ACTN    C1 6857   4.770   4.735   3.750  0.0372 -0.0352 -0.2549
  686ACTN    H1 6858   4.703   4.724   3.666 -1.1365  1.6784  0.4393
  686ACTN    H2 6859   4.789   4.841   3.763 -0.7326  0.0035  0.5998
  686ACTN    H3 6860   4.724   4.705   3.844  2.0758  0.1383  0.8358
  687ACTN    H6 6861   6.117   4.882   6.383 -0.5373  0.6846  0.1122
  687ACTN    C3 6862   6.076   4.785   6.355  0.7830  0.1651 -0.0311
  687ACTN    H4 6863   6.112   4.771   6.253 -1.5105  0.1233 -0.8548
  687ACTN    H5 6864   6.117   4.708   6.420  0.2522 -0.7464 -0.7695
  687ACTN    C2 6865   5.927   4.801   6.351  0.1266  0.6201  0.1851
  687ACTN    O1 6866   5.865   4.830   6.451  0.5907  0.1696  0.2261
  687ACTN    C1 6867   5.858   4.757   6.223 -0.0349 -0.3584  0.2630
  687ACTN    H1 6868   5.919   4.796   6.142  1.6186 -0.7887  1.2846
  687ACTN    H2 6869   5.759   4.804   6.227  0.0208 -0.0660 -1.4743
  687ACTN    H3 6870   5.844   4.650   6.212  0.3241 -0.4728  0.9086
  688ACTN    H6 6871   6.966   0.925   0.024  0.9115  0.9236 -0.4542
  688ACTN    C3 6872   7.004   0.945   0.124  0.7111  0.1300 -0.2127
  688ACTN    H4 6873   7.045   0.853   0.165  0.5485  0.0899 -0.1391
  688ACTN    H5 6874   7.083   1.020   0.117  0.4541  0.3040 -1.2260
  688ACTN    C2 6875   6.883   0.990   0.208  0.3052  0.5202  0.3317
  688ACTN    O1 6876   6.850   0.932   0.311  0.3901  0.1363  0.4089
  688ACTN    C1 6877   6.812   1.108   0.156  0.3515  0.3818 -0.0759
  688ACTN    H1 6878   6.709   1.118   0.189  0.2745 -0.8672  0.0823
  688ACTN    H2 6879   6.803   1.111   0.047 -0.2263 -0.1350 -0.0496
  688ACTN    H3 6880   6.865   1.195   0.195 -0.9865  0.4382  1.6849
  689ACTN    H6 6881   0.071   1.433   2.086  0.3572 -0.0190  1.1744
  689ACTN    C3 6882  -0.025   1.470   2.120 -0.2425 -0.5702  0.1016
  689ACTN    H4 6883  -0.093   1.484   2.036 -1.4162  1.5961  1.3624
  689ACTN    H5 6884  -0.064   1.397   2.191 -0.3894 -0.0015  0.6111
  689ACTN    C2 6885  -0.007   1.606   2.174  0.2233 -0.4089 -0.1128
  689ACTN    O1 6886   0.053   1.683   2.106  0.3338 -0.3537  0.1608
  689ACTN    C1 6887  -0.108   1.649   2.279  0.0380 -0.1123 -0.2308
  689ACTN    H1 6888  -0.211   1.667   2.247 -0.0740 -3.9889 -2.3372
  689ACTN    H2 6889  -0.074   1.734   2.338  2.3860 -1.2369  0.0795
  689ACTN    H3 6890  -0.120   1.567   2.349  1.0946  1.6263  2.0599
  690ACTN    H6 6891   0.202   6.646   4.291 -0.2355 -0.8414  1.8934
  690ACTN    C3 6892   0.251   6.741   4.313 -0.0101 -0.4326 -0.2609
  690ACTN    H4 6893   0.354   6.732   4.279  0.2492  1.9249 -0.2037
  690ACTN    H5 6894   0.209   6.827   4.261  0.8970  0.3494  0.2908
  690ACTN    C2 6895   0.240   6.771   4.462 -0.0248  1.0196  0.7022
  690ACTN    O1 6896   0.151   6.843   4.506  0.2598 -1.3320 -0.2790
  690ACTN    C1 6897   0.363   6.729   4.536 -0.4300 -0.4754 -0.2616
  690ACTN    H1 6898   0.335   6.650   4.605 -1.0983 -0.4181 -0.4561
  690ACTN    H2 6899   0.398   6.818   4.589 -2.6367  0.1745  0.1725
  690ACTN    H3 6900   0.448   6.696   4.478 -1.2868 -2.0501 -0.6486
  691ACTN    H6 6901   5.988   0.643   3.628 -2.1625 -1.2444  0.9501
  691ACTN    C3 6902   5.929   0.723   3.582 -0.1037  0.0174  0.4192
  691ACTN    H4 6903   5.912   0.700   3.477 -1.4367 -0.6019  0.7506
  691ACTN    H5 6904   5.836   0.735   3.638 -1.5917  2.9757 -2.4954
  691ACTN    C2 6905   6.009   0.848   3.590 -0.5922  0.2035  0.4299
  691ACTN    O1 6906   6.040   0.916   3.491 -0.0902 -0.1716 -0.1880
  691ACTN    C1 6907   6.046   0.894   3.731 -0.3960  0.3054  0.2386
  691ACTN    H1 6908   6.086   0.809   3.786  0.1200  0.0091 -0.5740
  691ACTN    H2 6909   5.960   0.933   3.784 -0.5719 -0.5408  0.5837
  691ACTN    H3 6910   6.122   0.972   3.730 -0.3823  0.3056  1.3181
  692ACTN    H6 6911   3.625   1.745   3.285  0.4223  0.3902 -0.3557
  692ACTN    C3 6912   3.680   1.816   3.347  0.0436  0.2020  0.2011
  692ACTN    H4 6913   3.604   1.877   3.396  0.7292  1.0583  0.2089
  692ACTN    H5 6914   3.744   1.765   3.419  0.3570  2.0651  1.2829
  692ACTN    C2 6915   3.763   1.896   3.260  0.1834 -0.1959 -0.2346
  692ACTN    O1 6916   3.780   2.014   3.289  0.3866  0.4552  0.2500
  692ACTN    C1 6917   3.852   1.836   3.160  0.1623  0.3211  0.5041
  692ACTN    H1 6918   3.934   1.785   3.212  0.7731  1.4002  0.6017
  692ACTN    H2 6919   3.901   1.908   3.095 -1.0855 -0.7916 -1.7070
  692ACTN    H3 6920   3.804   1.758   3.101  0.1508  0.5723  0.1835
  693ACTN    H6 6921   0.575   0.841   0.534  0.1518 -0.2460  1.3785
  693ACTN    C3 6922   0.592   0.748   0.478  0.1083  0.3973  0.2693
  693ACTN    H4 6923   0.621   0.681   0.560 -1.7063  1.3742  1.7569
  693ACTN    H5 6924   0.493   0.714   0.449  1.1284 -1.4818 -1.1294
  693ACTN    C2 6925   0.670   0.769   0.354 -0.2108 -0.8209  0.9393
  693ACTN    O1 6926   0.707   0.881   0.327 -0.7827 -0.4381 -0.7546
  693ACTN    C1 6927   0.734   0.655   0.286 -0.1910 -0.4352  0.2472
  693ACTN    H1 6928   0.819   0.633   0.350  1.1094 -0.3105 -1.4156
  693ACTN    H2 6929   0.755   0.688   0.184 -0.2065  1.6033  0.8774
  693ACTN    H3 6930   0.674   0.565   0.297  0.4032 -0.6074  2.4809
  694ACTN    H6 6931   2.953   4.846   1.848 -0.4048  2.9263 -0.8743
  694ACTN    C3 6932   2.902   4.868   1.942 -0.6366 -0.3641 -0.1825
  694ACTN    H4 6933   2.797   4.861   1.916 -0.2292  1.1390 -2.3141
  694ACTN    H5 6934   2.923   4.798   2.023 -3.0077 -0.7454  0.1201
  694ACTN    C2 6935   2.944   5.004   1.978  0.6969  0.4281 -0.4514
  694ACTN    O1 6936   3.050   5.021   2.038 -0.0395 -0.1039  0.4220
  694ACTN    C1 6937   2.864   5.120   1.930  0.0704  0.5889  0.4575
  694ACTN    H1 6938   2.820   5.097   1.833 -2.9932 -0.7071  2.0967
  694ACTN    H2 6939   2.928   5.207   1.915 -0.0265  0.2934 -1.8604
  694ACTN    H3 6940   2.782   5.144   1.998  0.2760  1.1026  0.5269
  695ACTN    H6 6941   0.488   7.333   4.973  0.7982 -0.2454 -1.8888
  695ACTN    C3 6942   0.394   7.283   4.952  0.0875  0.2034  0.1554
  695ACTN    H4 6943   0.413   7.177   4.935 -2.4471 -0.0456 -1.5049
  695ACTN    H5 6944   0.325   7.291   5.037  0.2938 -3.1628  0.6982
  695ACTN    C2 6945   0.332   7.353   4.831  0.1810 -0.9462  0.4745
  695ACTN    O1 6946   0.217   7.327   4.789 -0.4923 -0.0523 -0.6304
  695ACTN    C1 6947   0.408   7.463   4.756  0.0330  0.9673  0.1816
  695ACTN    H1 6948   0.343   7.549   4.746 -0.2193  0.5689 -1.6624
  695ACTN    H2 6949   0.425   7.427   4.655  1.6634 -0.1456  0.8270
  695ACTN    H3 6950   0.503   7.488   4.805  0.1938  1.4781 -0.3883
  696ACTN    H6 6951   3.614   7.302   5.769  2.9886 -0.8015 -3.0257
  696ACTN    C3 6952   3.668   7.389   5.807 -0.7569  0.0241  0.7473
  696ACTN    H4 6953   3.755   7.406   5.744 -0.0199  2.7152  2.3837
  696ACTN    H5 6954   3.600   7.474   5.798 -0.5981  0.1750  0.9836
  696ACTN    C2 6955   3.715   7.378   5.951 -0.5101  0.3507 -0.8935
  696ACTN    O1 6956   3.768   7.470   6.012 -0.9172 -0.6400  0.1313
  696ACTN    C1 6957   3.680   7.255   6.018  0.0134 -0.3866  0.7117
  696ACTN    H1 6958   3.607   7.202   5.956 -0.5291 -1.6589  2.3965
  696ACTN    H2 6959   3.629   7.270   6.113  1.8044  0.7913  1.5130
  696ACTN    H3 6960   3.768   7.192   6.021  0.1982 -0.0927  1.6998
  697ACTN    H6 6961   0.521   6.513   0.985 -0.4756 -0.1847  0.0761
  697ACTN    C3 6962   0.495   6.465   1.080 -0.0685 -0.3236  0.1189
  697ACTN    H4 6963   0.463   6.541   1.152 -0.5712 -0.4742  0.0562
  697ACTN    H5 6964   0.413   6.394   1.067 -0.4120 -0.2837  1.8912
  697ACTN    C2 6965   0.609   6.371   1.117 -0.2001 -0.1411 -0.4143
  697ACTN    O1 6966   0.648   6.289   1.037  0.1789 -0.7846  0.3032
  697ACTN    C1 6967   0.691   6.404   1.233 -0.2190 -0.2957  0.4803
  697ACTN    H1 6968   0.764   6.325   1.251  0.3549  0.2754  0.7048
  697ACTN    H2 6969   0.635   6.423   1.325 -1.3036  0.6927 -0.3614
  697ACTN    H3 6970   0.740   6.499   1.209  0.1803 -0.3047  1.2387
  698ACTN    H6 6971   6.973   6.870   4.694 -1.2377  0.7148 -1.6833
  698ACTN    C3 6972   6.960   6.960   4.754  0.6617 -0.2697  0.2612
  698ACTN    H4 6973   6.969   7.052   4.696 -1.4246  1.5892  2.7034
  698ACTN    H5 6974   6.860   6.947   4.797 -0.3049 -0.2203 -1.9249
  698ACTN    C2 6975   7.071   6.975   4.860  0.0959 -0.0641 -0.0735
  698ACTN    O1 6976   7.082   6.893   4.955 -0.1753  0.3720 -0.3562
  698ACTN    C1 6977   7.178   7.076   4.831 -0.0144  0.7254 -0.0981
  698ACTN    H1 6978   7.268   7.016   4.816  0.6329  1.8583 -0.8326
  698ACTN    H2 6979   7.195   7.154   4.905 -2.7713  1.5080 -0.2600
  698ACTN    H3 6980   7.164   7.135   4.741 -1.6226  2.4198  1.2342
  699ACTN    H6 6981   0.197   0.798   3.569  1.9121 -0.9563 -0.0570
  699ACTN    C3 6982   0.198   0.871   3.488 -0.6931 -0.6119  0.1983
  699ACTN    H4 6983   0.122   0.942   3.520  0.1330  1.9226 -3.2124
  699ACTN    H5 6984   0.292   0.925   3.479  0.7412 -3.2038 -1.0171
  699ACTN    C2 6985   0.177   0.782   3.365 -0.1475  0.6743 -0.0224
  699ACTN    O1 6986   0.182   0.662   3.357 -0.2366 -0.0163 -0.7804
  699ACTN    C1 6987   0.152   0.844   3.232 -0.1480  0.0181 -0.0317
  699ACTN    H1 6988   0.056   0.809   3.195 -0.1034 -2.4524  2.0483
  699ACTN    H2 6989   0.226   0.815   3.157 -1.6461  0.4174 -1.7056
  699ACTN    H3 6990   0.151   0.953   3.238  0.3136 -0.1026  2.8668
  700ACTN    H6 6991   4.824   7.216   5.726 -1.3581  3.6523 -0.8054
  700ACTN    C3 6992   4.749   7.225   5.804 -0.3428  0.7933  0.5728
  700ACTN    H4 6993   4.653   7.205   5.757 -0.4564  0.4595  0.9411
  700ACTN    H5 6994   4.760   7.164   5.894 -0.0592 -1.0568 -0.6757
  700ACTN    C2 6995   4.758   7.371   5.828  0.0327  0.2234  0.1282
  700ACTN    O1 6996   4.852   7.440   5.790  0.1525  0.4532 -0.0065
  700ACTN    C1 6997   4.627   7.436   5.877 -0.1325 -0.2722  0.6169
  700ACTN    H1 6998   4.636   7.457   5.983 -1.1889  0.7141  0.5130
  700ACTN    H2 6999   4.541   7.369   5.882 -0.9888  0.8010  0.4069
  700ACTN    H3 7000   4.601   7.525   5.821 -0.1379 -0.2459  0.6613
  701ACTN    H6 7001   6.874   5.780   1.623  0.7575  1.3542  0.4317
  701ACTN    C3 7002   6.976   5.766   1.586  0.2582 -0.4333 -0.2942
  701ACTN    H4 7003   7.044   5.802   1.664  0.4297 -2.5308  0.5706
  701ACTN    H5 7004   6.989   5.659   1.570  0.2090 -0.5006  0.1156
  701ACTN    C2 7005   6.982   5.832   1.451 -0.2271 -0.6105  0.1343
  701ACTN    O1 7006   6.943   5.778   1.351  0.3782 -0.8540  0.5007
  701ACTN    C1 7007   7.009   5.975   1.440  0.0337 -0.8347 -0.0809
  701ACTN    H1 7008   6.972   6.021   1.349  3.2428  0.8556 -0.6120
  701ACTN    H2 7009   7.113   6.006   1.429 -1.1064  3.0855 -0.3804
  701ACTN    H3 7010   6.974   6.027   1.529  0.0854  1.4552 -1.3458
  702ACTN    H6 7011   0.450   5.749   2.924 -0.0821  0.2201  1.1097
  702ACTN    C3 7012   0.358   5.807   2.919 -0.0518  0.1284 -0.6789
  702ACTN    H4 7013   0.338   5.836   3.022 -1.5931 -2.0155 -0.3382
  702ACTN    H5 7014   0.377   5.893   2.855  1.3115  0.8783  0.7007
  702ACTN    C2 7015   0.239   5.732   2.884  0.2138 -0.3203  0.2371
  702ACTN    O1 7016   0.211   5.615   2.929 -0.4131  0.1719 -0.3220
  702ACTN    C1 7017   0.153   5.793   2.774  0.7118 -1.0229  0.6862
  702ACTN    H1 7018   0.161   5.744   2.676  1.6502  2.7086 -1.1881
  702ACTN    H2 7019   0.185   5.896   2.759 -2.6644 -0.0659 -0.4571
  702ACTN    H3 7020   0.047   5.789   2.800  0.3507 -2.5474 -0.8539
  703ACTN    H6 7021   0.556   6.794   3.643 -0.7949 -0.5310  0.2709
  703ACTN    C3 7022   0.607   6.751   3.729 -0.4562 -0.2440  0.2137
  703ACTN    H4 7023   0.699   6.809   3.736 -1.2123  1.1703 -1.1836
  703ACTN    H5 7024   0.538   6.776   3.809 -0.0571  0.2093  0.4148
  703ACTN    C2 7025   0.603   6.606   3.717 -0.3484 -0.1224  0.2500
  703ACTN    O1 7026   0.603   6.536   3.813  0.3538  0.5117 -0.7079
  703ACTN    C1 7027   0.616   6.543   3.576 -0.3693 -0.7507  0.0072
  703ACTN    H1 7028   0.722   6.535   3.549 -0.8031 -0.8557 -1.6790
  703ACTN    H2 7029   0.579   6.614   3.503 -0.0891  0.3528  0.9138
  703ACTN    H3 7030   0.569   6.445   3.573  0.0836 -1.0037  0.8547
  704ACTN    H6 7031   2.435   4.234   2.980 -0.0308 -0.3649  0.1135
  704ACTN    C3 7032   2.519   4.301   2.993 -0.4136  0.2510 -0.5248
  704ACTN    H4 7033   2.541   4.281   3.098  1.7819  2.3425 -0.5366
  704ACTN    H5 7034   2.609   4.280   2.935  0.0243 -2.5180  1.0642
  704ACTN    C2 7035   2.498   4.453   2.986 -0.2313  0.3195  0.2320
  704ACTN    O1 7036   2.592   4.528   3.003  0.5445 -0.4945  0.3903
  704ACTN    C1 7037   2.367   4.506   2.932  0.5574 -0.1103  0.0978
  704ACTN    H1 7038   2.379   4.615   2.924  1.0976 -0.1108  0.8320
  704ACTN    H2 7039   2.289   4.479   3.003  0.6478  0.2850  0.3532
  704ACTN    H3 7040   2.343   4.470   2.832  2.0245  1.3763 -0.8154
  705ACTN    H6 7041   2.691   0.114   2.502  0.0243 -2.8480  0.7172
  705ACTN    C3 7042   2.584   0.110   2.480  0.0749 -0.3585 -0.1124
  705ACTN    H4 7043   2.534   0.199   2.517  1.7777  1.4810 -2.0584
  705ACTN    H5 7044   2.564   0.099   2.373 -0.4486 -0.1251 -0.0397
  705ACTN    C2 7045   2.525  -0.013   2.549  0.5021  0.0561 -0.1184
  705ACTN    O1 7046   2.450   0.009   2.642  0.8003  0.3997 -0.4407
  705ACTN    C1 7047   2.573  -0.154   2.529 -0.0526 -0.4228 -0.3057
  705ACTN    H1 7048   2.679  -0.157   2.556 -0.2945  1.0531  0.8488
  705ACTN    H2 7049   2.575  -0.197   2.429  0.0245 -0.0358 -0.4682
  705ACTN    H3 7050   2.528  -0.223   2.601 -0.7890 -1.3314 -1.6004
  706ACTN    H6 7051   1.589   5.671   1.453 -1.3948  0.8183  2.4653
  706ACTN    C3 7052   1.489   5.672   1.409 -0.0933 -0.2760 -0.6686
  706ACTN    H4 7053   1.486   5.623   1.312 -2.1840 -0.9720 -0.2732
  706ACTN    H5 7054   1.428   5.610   1.474 -0.5951  0.5269 -0.3675
  706ACTN    C2 7055   1.437   5.811   1.403 -0.0754 -0.3058 -0.4519
  706ACTN    O1 7056   1.510   5.914   1.415 -0.2714  0.0215 -0.4878
  706ACTN    C1 7057   1.307   5.833   1.339  1.1516  0.8168  0.5652
  706ACTN    H1 7058   1.318   5.915   1.268 -0.7852  0.3424 -0.3130
  706ACTN    H2 7059   1.231   5.865   1.410 -0.0867 -0.3397 -0.2271
  706ACTN    H3 7060   1.273   5.743   1.287  1.7166  0.2066  1.2425
  707ACTN    H6 7061   6.080   6.787   4.625  1.6075  1.0251  3.5625
  707ACTN    C3 7062   6.091   6.681   4.645  0.1177 -0.0684 -0.8525
  707ACTN    H4 7063   6.196   6.659   4.625  0.3299  2.2616 -2.4354
  707ACTN    H5 7064   6.034   6.628   4.568 -0.5018 -0.2393 -0.2857
  707ACTN    C2 7065   6.046   6.636   4.778 -0.3086  1.1203  0.7603
  707ACTN    O1 7066   5.927   6.652   4.800 -0.0173  0.2311 -0.0646
  707ACTN    C1 7067   6.133   6.558   4.871 -0.0818  0.3607  0.3774
  707ACTN    H1 7068   6.228   6.535   4.822  0.8064  0.9072  1.8140
  707ACTN    H2 7069   6.090   6.462   4.899  1.8481 -1.4355 -2.5323
  707ACTN    H3 7070   6.142   6.623   4.958  0.0786  0.0325  0.6065
  708ACTN    H6 7071   6.852   0.851   4.554  0.9754  0.7979 -1.0246
  708ACTN    C3 7072   6.809   0.852   4.454 -0.1036  0.2072 -0.5747
  708ACTN    H4 7073   6.817   0.952   4.411  2.1547 -0.5125 -1.9009
  708ACTN    H5 7074   6.860   0.778   4.392  0.2821 -0.5491  0.6224
  708ACTN    C2 7075   6.665   0.805   4.466 -0.2474 -0.6547  0.2777
  708ACTN    O1 7076   6.640   0.699   4.516  0.3098 -0.5568  0.0647
  708ACTN    C1 7077   6.552   0.901   4.426  0.2902 -0.1725 -0.3256
  708ACTN    H1 7078   6.586   1.002   4.447  1.4956 -0.8034  0.8312
  708ACTN    H2 7079   6.467   0.882   4.491  0.1060  0.3921 -0.4033
  708ACTN    H3 7080   6.523   0.883   4.322  0.3281  2.6869 -0.8579
  709ACTN    H6 7081   4.748   2.217   6.868 -0.4792 -3.1634 -3.6389
  709ACTN    C3 7082   4.822   2.269   6.807  0.6127 -0.3019 -0.0550
  709ACTN    H4 7083   4.872   2.341   6.872 -1.0712 -1.9233  3.2198
  709ACTN    H5 7084   4.884   2.187   6.769  0.1464  0.2235 -1.9898
  709ACTN    C2 7085   4.753   2.327   6.694 -0.3588  0.4050  0.2854
  709ACTN    O1 7086   4.807   2.393   6.605  0.2114  0.7096 -0.4306
  709ACTN    C1 7087   4.607   2.299   6.687 -0.4552 -0.2764  0.2581
  709ACTN    H1 7088   4.557   2.330   6.596  0.0163 -2.0941 -0.6258
  709ACTN    H2 7089   4.560   2.341   6.777 -0.6224 -0.2379  0.1516
  709ACTN    H3 7090   4.588   2.193   6.704  1.1599 -0.7213 -0.6189
  710ACTN    H6 7091   4.073   4.085   6.809 -2.1359  1.0355 -0.6597
  710ACTN    C3 7092   4.134   4.075   6.719 -0.2370  0.0152  0.7154
  710ACTN    H4 7093   4.063   4.053   6.640 -1.9205  1.8129  1.6940
  710ACTN    H5 7094   4.182   4.170   6.694  0.6959 -0.1747  1.7308
  710ACTN    C2 7095   4.229   3.967   6.740  0.7657 -0.5893  0.1835
  710ACTN    O1 7096   4.255   3.919   6.847 -0.6544 -0.9844 -0.1314
  710ACTN    C1 7097   4.306   3.921   6.621  0.1116  0.4450 -0.5281
  710ACTN    H1 7098   4.255   3.841   6.568 -0.6762  0.1484  0.6401
  710ACTN    H2 7099   4.410   3.902   6.647  0.5880  2.2737 -1.0140
  710ACTN    H3 7100   4.303   3.996   6.542 -1.3965  0.3465 -0.5808
  711ACTN    H6 7101   4.355   6.630   5.373 -2.7810 -0.0462 -1.8970
  711ACTN    C3 7102   4.357   6.733   5.337  0.3951  0.4260 -0.5705
  711ACTN    H4 7103   4.463   6.759   5.337  0.0128  2.0088  0.9655
  711ACTN    H5 7104   4.315   6.737   5.236 -1.2222  1.9478  0.1435
  711ACTN    C2 7105   4.292   6.817   5.439 -0.2502 -0.5686 -0.7106
  711ACTN    O1 7106   4.364   6.889   5.509 -0.7677 -0.2130 -0.2492
  711ACTN    C1 7107   4.141   6.822   5.437 -0.7244  0.6159 -0.2425
  711ACTN    H1 7108   4.109   6.887   5.355  2.4527  1.5888 -0.8214
  711ACTN    H2 7109   4.096   6.854   5.530 -0.4930 -0.3739  0.2122
  711ACTN    H3 7110   4.107   6.721   5.415  0.9808 -0.6337  2.6613
  712ACTN    H6 7111   1.765   1.402   2.167 -2.1465  1.0549  1.3002
  712ACTN    C3 7112   1.720   1.472   2.097 -0.8222  0.0204 -0.6510
  712ACTN    H4 7113   1.782   1.471   2.008 -0.4629 -1.8745 -0.3922
  712ACTN    H5 7114   1.622   1.435   2.065 -0.2656 -0.4734 -1.8173
  712ACTN    C2 7115   1.713   1.609   2.150 -0.3982  0.9484  0.6176
  712ACTN    O1 7116   1.812   1.681   2.143  0.2337  0.1461  0.6496
  712ACTN    C1 7117   1.591   1.641   2.229 -0.3568  0.1510  0.1567
  712ACTN    H1 7118   1.553   1.735   2.189 -2.2671 -0.5906  0.1233
  712ACTN    H2 7119   1.622   1.661   2.331  0.0334 -1.6636  0.4070
  712ACTN    H3 7120   1.507   1.571   2.230 -1.2287  1.1825  0.4212
  713ACTN    H6 7121   0.795   6.155   1.695 -0.3165 -0.9154  1.0485
  713ACTN    C3 7122   0.823   6.069   1.635 -0.0642 -0.0913 -0.0213
  713ACTN    H4 7123   0.927   6.087   1.605 -0.2772 -0.8252 -1.2398
  713ACTN    H5 7124   0.829   5.973   1.686 -1.5542  1.0489  2.3846
  713ACTN    C2 7125   0.742   6.066   1.512 -0.1199 -0.0432 -0.2668
  713ACTN    O1 7126   0.660   6.155   1.490  0.1182  0.1501  0.6789
  713ACTN    C1 7127   0.773   5.969   1.401  0.2834  0.0420  0.0438
  713ACTN    H1 7128   0.689   5.946   1.335 -0.0208 -1.9972  1.0751
  713ACTN    H2 7129   0.821   5.875   1.427 -0.5651 -0.1536  0.9417
  713ACTN    H3 7130   0.844   6.027   1.343 -2.0759  0.4428 -2.5349
  714ACTN    H6 7131   0.850   0.686   2.984  0.2675 -0.9877 -1.6344
  714ACTN    C3 7132   0.744   0.709   2.975  0.2731  0.0283  0.5889
  714ACTN    H4 7133   0.734   0.818   2.975 -0.4001 -0.0040  2.4572
  714ACTN    H5 7134   0.708   0.672   2.879 -0.9740  3.1593 -0.2122
  714ACTN    C2 7135   0.666   0.650   3.085  0.0730 -0.1424 -0.1563
  714ACTN    O1 7136   0.710   0.551   3.136  0.6721  0.0717 -0.1833
  714ACTN    C1 7137   0.553   0.729   3.137  0.2785  0.2908  0.4253
  714ACTN    H1 7138   0.553   0.724   3.246 -0.7979  1.8716  0.5033
  714ACTN    H2 7139   0.460   0.683   3.103 -0.6044  0.0118  3.0831
  714ACTN    H3 7140   0.551   0.833   3.107  0.3825  0.1746  0.0130
  715ACTN    H6 7141   1.318   6.517   3.106  0.1894  0.3756 -0.7193
  715ACTN    C3 7142   1.404   6.576   3.073  0.2632  0.8438  0.2898
  715ACTN    H4 7143   1.410   6.674   3.122 -0.2157  1.5646 -1.0535
  715ACTN    H5 7144   1.490   6.515   3.098  0.1481 -0.5293 -2.4824
  715ACTN    C2 7145   1.392   6.601   2.926  0.6059 -0.3872  0.0922
  715ACTN    O1 7146   1.342   6.504   2.859  0.0608 -0.2098 -0.1253
  715ACTN    C1 7147   1.455   6.724   2.867  0.3893 -0.5096 -0.0480
  715ACTN    H1 7148   1.383   6.806   2.873  0.8703  0.0364 -1.5371
  715ACTN    H2 7149   1.487   6.710   2.764  1.1322  0.6487  0.0186
  715ACTN    H3 7150   1.543   6.756   2.923 -0.2586  2.7209 -0.8058
  716ACTN    H6 7151   5.361   1.381   5.022  0.3200 -0.7349 -0.4521
  716ACTN    C3 7152   5.288   1.393   4.942  0.1175  0.5073 -0.0822
  716ACTN    H4 7153   5.285   1.299   4.888  3.7924  0.5591 -0.5028
  716ACTN    H5 7154   5.197   1.413   4.999  0.8046  0.4383  1.0677
  716ACTN    C2 7155   5.322   1.504   4.853  0.4425  0.3709  0.5965
  716ACTN    O1 7156   5.279   1.616   4.876  0.1161  0.1492  0.0118
  716ACTN    C1 7157   5.409   1.494   4.733  0.7295 -1.2373 -0.8323
  716ACTN    H1 7158   5.471   1.583   4.722  1.5202 -1.5279  1.0683
  716ACTN    H2 7159   5.341   1.485   4.649 -0.2263 -0.1880 -0.1796
  716ACTN    H3 7160   5.482   1.412   4.737  2.1517  0.0732  0.6056
  717ACTN    H6 7161   0.418   7.032   0.068 -0.2388 -1.0079 -1.4231
  717ACTN    C3 7162   0.336   7.104   0.066  0.8366  0.2710  0.0649
  717ACTN    H4 7163   0.326   7.144   0.168 -0.6831 -0.1941  0.1116
  717ACTN    H5 7164   0.352   7.182  -0.008  2.8061 -0.9952 -0.8848
  717ACTN    C2 7165   0.207   7.035   0.025  0.0317 -0.4137  0.1605
  717ACTN    O1 7166   0.188   6.991  -0.088  0.0981  0.0647  0.5076
  717ACTN    C1 7167   0.093   7.036   0.120  0.7455  0.1435  0.5374
  717ACTN    H1 7168   0.002   7.057   0.064  1.2771 -0.5200 -0.6021
  717ACTN    H2 7169   0.108   7.101   0.206  2.3048 -1.1126  1.2467
  717ACTN    H3 7170   0.076   6.935   0.157 -1.0097 -0.2878 -1.3389
  718ACTN    H6 7171   4.853   1.032   4.701  0.2045  2.7805 -0.2440
  718ACTN    C3 7172   4.773   1.019   4.628  0.4100 -0.0549 -0.0033
  718ACTN    H4 7173   4.779   1.114   4.576 -0.3944 -0.9666 -1.8089
  718ACTN    H5 7174   4.799   0.942   4.555 -1.4715 -0.6809 -0.0478
  718ACTN    C2 7175   4.640   0.975   4.685  0.5264 -0.2033 -0.5958
  718ACTN    O1 7176   4.625   0.931   4.800 -0.5866  0.0869 -0.3077
  718ACTN    C1 7177   4.523   0.973   4.587 -0.2129  0.3421 -0.2564
  718ACTN    H1 7178   4.426   0.964   4.636 -0.7734  1.0578 -1.2087
  718ACTN    H2 7179   4.536   0.888   4.520  0.1306 -0.2301  0.5265
  718ACTN    H3 7180   4.516   1.060   4.522  0.5703  0.7900  0.2425
  719ACTN    H6 7181   5.959   5.609   6.803  0.9835 -1.6714 -0.1885
  719ACTN    C3 7182   5.865   5.570   6.840 -0.0194  1.0453  0.2779
  719ACTN    H4 7183   5.890   5.474   6.885  0.1552  1.5340  1.2370
  719ACTN    H5 7184   5.836   5.639   6.919  1.1551 -0.5286  2.1373
  719ACTN    C2 7185   5.765   5.567   6.737 -0.5375 -0.5733 -1.0247
  719ACTN    O1 7186   5.752   5.463   6.669  0.2989  0.1829 -0.0032
  719ACTN    C1 7187   5.697   5.693   6.698 -0.4687 -0.0030  0.4165
  719ACTN    H1 7188   5.767   5.763   6.651 -1.0582  0.2973 -0.0213
  719ACTN    H2 7189   5.653   5.742   6.784 -0.6501  1.1901 -0.3445
  719ACTN    H3 7190   5.623   5.662   6.624 -0.5375 -0.1658  0.5539
  720ACTN    H6 7191   6.543   6.073   1.996  1.0558  0.5473 -0.5659
  720ACTN    C3 7192   6.572   6.106   1.896  0.0007  0.7659 -0.8071
  720ACTN    H4 7193   6.492   6.076   1.828  0.6294 -1.5838 -0.5423
  720ACTN    H5 7194   6.583   6.214   1.898  0.6179  0.6892  0.6729
  720ACTN    C2 7195   6.696   6.038   1.852  0.1450  0.1159 -0.1262
  720ACTN    O1 7196   6.794   6.099   1.809 -0.6326 -0.2775  0.2601
  720ACTN    C1 7197   6.688   5.896   1.837 -0.1578  0.2621 -0.2613
  720ACTN    H1 7198   6.630   5.844   1.914  0.8776 -1.7443 -0.7950
  720ACTN    H2 7199   6.787   5.851   1.836 -0.5056 -0.5098 -1.1037
  720ACTN    H3 7200   6.636   5.882   1.742  0.0238 -0.8020 -0.2107
  721ACTN    H6 7201   0.274   0.453   7.083 -0.9822  2.2323  0.8533
  721ACTN    C3 7202   0.379   0.468   7.107 -0.2656 -0.2271 -0.5204
  721ACTN    H4 7203   0.424   0.503   7.014  1.9945 -1.6597 -0.0048
  721ACTN    H5 7204   0.377   0.560   7.166 -3.2710 -0.3288 -0.3853
  721ACTN    C2 7205   0.447   0.353   7.175  0.3721 -0.1765  0.2292
  721ACTN    O1 7206   0.558   0.362   7.213  0.4344  0.1388  0.0188
  721ACTN    C1 7207   0.362   0.241   7.213 -0.5974  0.0753 -0.5625
  721ACTN    H1 7208   0.381   0.154   7.150 -0.9103 -1.6321  1.6521
  721ACTN    H2 7209   0.255   0.261   7.222 -0.3432  1.3706 -0.3131
  721ACTN    H3 7210   0.400   0.206   7.309  0.5825 -2.2629 -1.8569
  722ACTN    H6 7211   6.430   5.047   2.179  1.7226 -2.3334 -1.2123
  722ACTN    C3 7212   6.458   5.121   2.104  0.0057 -0.3454  0.0457
  722ACTN    H4 7213   6.371   5.186   2.098  1.3791  1.4306 -1.0386
  722ACTN    H5 7214   6.547   5.175   2.136  0.5314 -2.2856  1.9887
  722ACTN    C2 7215   6.489   5.060   1.971  0.5674  0.4029  0.1214
  722ACTN    O1 7216   6.531   5.110   1.871 -0.0215  0.2872 -0.1636
  722ACTN    C1 7217   6.437   4.918   1.951  0.0757 -0.0382  0.3996
  722ACTN    H1 7218   6.383   4.896   1.859  0.9622 -0.4988 -0.0137
  722ACTN    H2 7219   6.376   4.889   2.037 -2.3235  0.8455 -0.9599
  722ACTN    H3 7220   6.515   4.843   1.958 -0.3639 -0.5751 -0.4086
  723ACTN    H6 7221   5.073   5.773   0.248  1.4559  2.3500 -1.0034
  723ACTN    C3 7222   5.113   5.759   0.348  0.4741 -0.4464 -0.9579
  723ACTN    H4 7223   5.027   5.729   0.408  0.2748 -0.6626 -1.3468
  723ACTN    H5 7224   5.180   5.674   0.339 -0.9949 -1.9232  1.4720
  723ACTN    C2 7225   5.184   5.880   0.404 -1.0064 -0.5019 -0.2277
  723ACTN    O1 7226   5.239   5.950   0.321 -0.0104 -0.4855 -0.4518
  723ACTN    C1 7227   5.232   5.872   0.548 -0.0305  0.2574  0.2618
  723ACTN    H1 7228   5.157   5.807   0.595 -1.6347  1.3482 -0.7265
  723ACTN    H2 7229   5.237   5.974   0.586 -1.6910  0.5780 -0.3174
  723ACTN    H3 7230   5.334   5.834   0.554  0.3669  1.1744 -0.6595
  724ACTN    H6 7231   6.283   5.340   6.472 -0.5906 -1.1732  0.7037
  724ACTN    C3 7232   6.289   5.281   6.380 -0.3120 -0.1079  0.0183
  724ACTN    H4 7233   6.279   5.352   6.298  1.9058  0.6972  0.4217
  724ACTN    H5 7234   6.389   5.238   6.380 -0.8981 -1.4882  0.3390
  724ACTN    C2 7235   6.188   5.178   6.369 -0.0923  0.1396 -0.3322
  724ACTN    O1 7236   6.182   5.115   6.265  0.6505  0.4194  0.0507
  724ACTN    C1 7237   6.092   5.168   6.488  0.5232 -1.3440  0.7229
  724ACTN    H1 7238   6.068   5.261   6.539 -0.6766 -1.2474 -0.0244
  724ACTN    H2 7239   6.135   5.104   6.565 -0.8934 -0.0018  2.6746
  724ACTN    H3 7240   5.995   5.126   6.465 -0.6449  0.3313  2.4517
  725ACTN    H6 7241   6.931   3.888   6.354  2.1187 -1.1762  0.8418
  725ACTN    C3 7242   6.900   3.791   6.316 -0.4226 -0.0300 -0.1368
  725ACTN    H4 7243   6.983   3.722   6.333  0.1217  0.5275 -0.5122
  725ACTN    H5 7244   6.820   3.762   6.384 -1.5963 -0.4465 -1.6653
  725ACTN    C2 7245   6.860   3.797   6.168 -0.0464 -0.5431  0.3861
  725ACTN    O1 7246   6.798   3.893   6.123  0.1956  0.4050 -0.1186
  725ACTN    C1 7247   6.910   3.679   6.081  0.6701  0.1700 -0.0344
  725ACTN    H1 7248   6.838   3.645   6.007  0.8748  3.4564 -1.8281
  725ACTN    H2 7249   6.924   3.597   6.152 -0.2391 -0.3788 -0.4847
  725ACTN    H3 7250   7.006   3.696   6.033  0.8214  2.5262  1.0364
  726ACTN    H6 7251   4.567   2.853   1.257  0.3115 -0.3983 -0.7509
  726ACTN    C3 7252   4.478   2.900   1.216  0.2874 -0.4384 -0.7459
  726ACTN    H4 7253   4.507   3.005   1.216  1.2916 -0.6992 -2.3304
  726ACTN    H5 7254   4.448   2.868   1.116  1.0253  1.2497 -1.5293
  726ACTN    C2 7255   4.359   2.871   1.305  0.1005 -1.0868 -0.6902
  726ACTN    O1 7256   4.375   2.817   1.412 -0.2802  0.2281  0.0396
  726ACTN    C1 7257   4.228   2.936   1.286 -0.1214  0.3588 -0.0194
  726ACTN    H1 7258   4.174   2.957   1.378  0.5690 -0.2855  0.5397
  726ACTN    H2 7259   4.174   2.859   1.231  2.0707 -1.0295 -0.2900
  726ACTN    H3 7260   4.239   3.024   1.223  1.3977  0.9201  0.9912
  727ACTN    H6 7261   2.827   0.236   2.986 -0.4019 -0.1228  0.7808
  727ACTN    C3 7262   2.869   0.140   3.014  0.4020  0.0202  0.0581
  727ACTN    H4 7263   2.975   0.153   3.036  0.3183  0.3257  0.2710
  727ACTN    H5 7264   2.814   0.110   3.103 -0.3481 -0.4636 -0.5613
  727ACTN    C2 7265   2.849   0.042   2.904 -0.6224 -0.3618  0.0089
  727ACTN    O1 7266   2.892   0.068   2.795 -0.1063  0.5289  0.9495
  727ACTN    C1 7267   2.790  -0.092   2.944 -0.3530 -0.5170  0.7193
  727ACTN    H1 7268   2.700  -0.072   3.001  0.2841  1.5128  1.0643
  727ACTN    H2 7269   2.863  -0.151   3.000  0.6417  0.9088  0.9637
  727ACTN    H3 7270   2.760  -0.149   2.856  1.9786  0.9632 -1.0901
  728ACTN    H6 7271   6.333   0.539   3.730  0.2586 -0.1761  1.0233
  728ACTN    C3 7272   6.426   0.482   3.727  0.2423 -0.1743  0.2470
  728ACTN    H4 7273   6.412   0.400   3.798 -1.7524  1.6989  2.1024
  728ACTN    H5 7274   6.423   0.441   3.626  0.4484 -1.3269  0.7004
  728ACTN    C2 7275   6.549   0.562   3.761  1.0761 -1.3313 -0.5134
  728ACTN    O1 7276   6.660   0.522   3.729 -0.3687  0.6883 -0.0765
  728ACTN    C1 7277   6.520   0.709   3.796 -0.4486 -0.2690 -0.2257
  728ACTN    H1 7278   6.586   0.735   3.879 -0.8418  1.0454 -0.3267
  728ACTN    H2 7279   6.416   0.732   3.818  0.2610  0.8427  2.0960
  728ACTN    H3 7280   6.563   0.771   3.718  1.0823 -1.6323 -0.4984
  729ACTN    H6 7281   5.903   4.133   5.734 -0.2828  3.7782  0.2783
  729ACTN    C3 7282   5.916   4.125   5.842  0.5887 -0.6853 -0.0869
  729ACTN    H4 7283   5.932   4.227   5.876  1.1069 -1.2075  1.2869
  729ACTN    H5 7284   5.819   4.101   5.885  0.3759  2.3416  1.2688
  729ACTN    C2 7285   6.017   4.018   5.886 -0.6970  0.5398  0.1340
  729ACTN    O1 7286   5.986   3.923   5.961 -0.5484 -0.6323 -0.1637
  729ACTN    C1 7287   6.150   4.012   5.821  0.4446  0.0441  0.3321
  729ACTN    H1 7288   6.188   3.911   5.836 -2.0912 -0.8340  1.0885
  729ACTN    H2 7289   6.215   4.082   5.874 -0.4279  0.4696  0.8596
  729ACTN    H3 7290   6.145   4.032   5.714 -2.5317 -1.6197  0.0981
  730ACTN    H6 7291   0.302   5.947   3.727  0.5084 -0.3426 -1.2730
  730ACTN    C3 7292   0.383   5.935   3.799 -0.1575  0.3950 -0.3779
  730ACTN    H4 7293   0.355   5.936   3.904  2.4651 -0.9409  0.3734
  730ACTN    H5 7294   0.428   5.837   3.781  1.8682  1.0436  0.9929
  730ACTN    C2 7295   0.492   6.039   3.775  0.5502 -0.5594  0.2063
  730ACTN    O1 7296   0.460   6.145   3.712 -0.0866 -0.3688  0.0305
  730ACTN    C1 7297   0.620   6.023   3.853  0.0193 -0.5562  0.0609
  730ACTN    H1 7298   0.618   5.923   3.896 -1.9400 -1.1500 -1.3808
  730ACTN    H2 7299   0.627   6.105   3.925 -2.8144  1.1816 -1.5288
  730ACTN    H3 7300   0.709   6.018   3.791  0.0683 -0.4567  0.1226
  731ACTN    H6 7301   5.989   4.313   5.545 -0.2104 -1.9669  0.2899
  731ACTN    C3 7302   5.915   4.316   5.465 -0.1469  0.6259  0.2845
  731ACTN    H4 7303   5.830   4.254   5.491 -0.5630  1.2539  0.4379
  731ACTN    H5 7304   5.869   4.414   5.455 -0.9051  0.2471  0.0252
  731ACTN    C2 7305   5.987   4.271   5.349  0.5776  0.1395  0.3543
  731ACTN    O1 7306   5.923   4.241   5.250 -0.3351  0.0835  0.4519
  731ACTN    C1 7307   6.129   4.242   5.345 -0.0653  0.1204 -0.5843
  731ACTN    H1 7308   6.152   4.162   5.414 -1.5545  1.2922  1.3383
  731ACTN    H2 7309   6.174   4.326   5.398  0.7384 -0.4004 -0.4524
  731ACTN    H3 7310   6.172   4.234   5.245  1.5943 -1.4207  0.2458
  732ACTN    H6 7311   6.252   6.728   1.033  1.8704  0.0674 -0.3892
  732ACTN    C3 7312   6.205   6.631   1.022  0.3246  0.7698 -0.1030
  732ACTN    H4 7313   6.207   6.617   0.914 -1.2430  3.3177 -0.4988
  732ACTN    H5 7314   6.263   6.547   1.060  1.7409  2.3463  1.2576
  732ACTN    C2 7315   6.059   6.626   1.058  0.2569 -0.3503 -0.7911
  732ACTN    O1 7316   5.983   6.714   1.017 -0.0825  0.4721  0.3763
  732ACTN    C1 7317   6.019   6.536   1.171 -0.4232 -0.3639 -0.2031
  732ACTN    H1 7318   5.951   6.586   1.241 -0.5012  1.2536 -1.3893
  732ACTN    H2 7319   6.107   6.505   1.226  0.5342  0.4996 -1.2363
  732ACTN    H3 7320   5.973   6.445   1.133 -0.7182 -1.1970  2.0942
  733ACTN    H6 7321   0.833   6.565   1.504 -0.0379 -1.4618 -2.5470
  733ACTN    C3 7322   0.830   6.490   1.583  0.8408  0.5684 -0.5472
  733ACTN    H4 7323   0.794   6.531   1.677 -1.8681  1.9929 -2.1424
  733ACTN    H5 7324   0.763   6.408   1.558 -0.4886  1.8397 -1.1898
  733ACTN    C2 7325   0.970   6.446   1.601 -0.2165  0.2213 -0.1777
  733ACTN    O1 7326   1.029   6.401   1.510  0.3587  0.0929  0.0555
  733ACTN    C1 7327   1.031   6.450   1.736  0.3367  0.2872  0.2049
  733ACTN    H1 7328   1.120   6.387   1.731 -0.4098 -1.1547  3.7148
  733ACTN    H2 7329   0.964   6.417   1.815 -0.0033  0.6457  0.0708
  733ACTN    H3 7330   1.079   6.543   1.767 -2.2109  1.7243 -0.0009
  734ACTN    H6 7331   3.421   5.909   5.858 -0.7480  1.9132  0.0985
  734ACTN    C3 7332   3.397   5.866   5.955 -0.0291 -0.1636 -0.6116
  734ACTN    H4 7333   3.470   5.790   5.984 -0.7241 -0.7957 -0.5034
  734ACTN    H5 7334   3.432   5.947   6.020 -1.7678  1.1871 -1.3381
  734ACTN    C2 7335   3.255   5.834   5.970  0.9224 -0.8874  1.2545
  734ACTN    O1 7336   3.195   5.823   5.867 -0.4428 -0.4222  0.1376
  734ACTN    C1 7337   3.191   5.832   6.102  0.1076 -0.1073  0.6727
  734ACTN    H1 7338   3.092   5.796   6.078  0.8522 -2.0799  0.4853
  734ACTN    H2 7339   3.185   5.928   6.153 -0.4914 -0.6013  1.5429
  734ACTN    H3 7340   3.240   5.751   6.156  0.3850 -1.1266 -1.0762
  735ACTN    H6 7341   4.764   2.317   0.832  1.6483  2.0327 -0.2414
  735ACTN    C3 7342   4.703   2.406   0.818  0.1725  1.0194 -0.3970
  735ACTN    H4 7343   4.663   2.441   0.913 -1.9085  1.0767 -1.2580
  735ACTN    H5 7344   4.779   2.475   0.783  0.4248  0.3005 -1.2799
  735ACTN    C2 7345   4.596   2.392   0.713  0.2249 -0.3850  0.9142
  735ACTN    O1 7346   4.613   2.470   0.617  0.4157 -0.2357 -0.2695
  735ACTN    C1 7347   4.517   2.267   0.709 -0.9147  0.1825  0.0749
  735ACTN    H1 7348   4.573   2.186   0.662 -3.4106 -0.2837 -2.2486
  735ACTN    H2 7349   4.430   2.297   0.650  0.2360  1.3877 -1.0490
  735ACTN    H3 7350   4.484   2.247   0.811  0.4956 -2.0216  0.1131
  736ACTN    H6 7351   7.331   6.774   4.146 -0.7570 -0.4273 -0.6207
  736ACTN    C3 7352   7.276   6.745   4.236 -0.1136  0.0409 -0.0762
  736ACTN    H4 7353   7.224   6.650   4.225  3.4892 -2.0404  0.0789
  736ACTN    H5 7354   7.337   6.726   4.324  0.9959 -2.2423 -1.2929
  736ACTN    C2 7355   7.173   6.854   4.280  0.6622  0.3806 -0.4751
  736ACTN    O1 7356   7.134   6.930   4.193  0.0319  0.0855  0.0235
  736ACTN    C1 7357   7.114   6.864   4.418 -0.5660  0.0747  0.4705
  736ACTN    H1 7358   7.097   6.761   4.450 -2.3632 -0.0580 -0.8945
  736ACTN    H2 7359   7.020   6.918   4.412  0.6488  2.1780 -0.1312
  736ACTN    H3 7360   7.182   6.923   4.481  0.8086  1.3761 -2.1576
  737ACTN    H6 7361   7.144   1.968   6.496  0.9301  0.2568  1.5735
  737ACTN    C3 7362   7.048   1.940   6.540  0.4212  0.0483  0.3350
  737ACTN    H4 7363   6.976   2.018   6.517  0.8667  0.6650  1.0272
  737ACTN    H5 7364   7.059   1.934   6.648  1.8983 -1.6466  0.1130
  737ACTN    C2 7365   7.008   1.808   6.483 -0.0037  0.3264  0.3361
  737ACTN    O1 7366   6.892   1.794   6.448 -0.1239 -0.1247  0.5942
  737ACTN    C1 7367   7.116   1.703   6.482  0.6336 -0.0457  0.0636
  737ACTN    H1 7368   7.157   1.700   6.583 -0.3681  3.1437  0.6288
  737ACTN    H2 7369   7.190   1.738   6.410 -0.3767  0.8852 -0.5346
  737ACTN    H3 7370   7.077   1.604   6.456  0.2402 -0.2068  1.2399
  738ACTN    H6 7371   1.014   7.296   5.039 -1.7290 -0.9251 -0.0596
  738ACTN    C3 7372   0.958   7.379   4.995 -0.0331  0.4773  0.3733
  738ACTN    H4 7373   0.905   7.435   5.071  1.0981  0.5040  1.1415
  738ACTN    H5 7374   1.028   7.449   4.949 -2.7402  0.9831 -3.2127
  738ACTN    C2 7375   0.847   7.335   4.907 -0.1647 -0.2625  0.4945
  738ACTN    O1 7376   0.781   7.420   4.847 -0.1074  0.4694  0.1093
  738ACTN    C1 7377   0.816   7.190   4.900 -0.5993  0.9542 -0.0810
  738ACTN    H1 7378   0.862   7.148   4.810  0.7758  0.6953  0.7269
  738ACTN    H2 7379   0.710   7.165   4.906 -0.2849 -0.2391  0.6687
  738ACTN    H3 7380   0.861   7.146   4.988 -1.6067  1.8848  0.9092
  739ACTN    H6 7381   0.438   6.576   2.103 -0.4243  1.5653 -0.0016
  739ACTN    C3 7382   0.513   6.584   2.181 -0.3692 -0.9436  0.2370
  739ACTN    H4 7383   0.464   6.631   2.266  0.3024 -0.4505  0.3565
  739ACTN    H5 7384   0.543   6.483   2.211  0.3927 -1.3860 -1.9303
  739ACTN    C2 7385   0.620   6.680   2.140 -0.0157  0.0955 -1.0953
  739ACTN    O1 7386   0.614   6.796   2.173  0.3618 -0.2003 -0.6574
  739ACTN    C1 7387   0.709   6.641   2.027  1.4094  0.2244 -0.1298
  739ACTN    H1 7388   0.774   6.723   1.998 -2.2919  2.7867 -1.4967
  739ACTN    H2 7389   0.655   6.614   1.936  1.0290 -0.0283  0.1699
  739ACTN    H3 7390   0.768   6.550   2.043  0.8285 -0.8460 -3.5791
  740ACTN    H6 7391   0.774   1.618   5.229 -1.0755  0.0210 -0.9530
  740ACTN    C3 7392   0.809   1.697   5.163  0.3147 -0.0632 -0.3464
  740ACTN    H4 7393   0.856   1.787   5.202 -2.4500  1.5366 -0.5960
  740ACTN    H5 7394   0.886   1.654   5.099  0.6252  2.8596 -2.0334
  740ACTN    C2 7395   0.701   1.735   5.070  0.1373  0.4714 -0.0575
  740ACTN    O1 7396   0.593   1.674   5.081 -0.0111  0.1967 -0.3963
  740ACTN    C1 7397   0.736   1.820   4.955 -0.1474 -0.1094 -0.4435
  740ACTN    H1 7398   0.834   1.864   4.969 -0.3897 -0.3295  2.2069
  740ACTN    H2 7399   0.659   1.896   4.940  0.3463  0.4676 -0.0677
  740ACTN    H3 7400   0.733   1.762   4.863 -1.9698  0.5338 -0.8221
  741ACTN    H6 7401   2.378   1.150   4.339 -1.7766 -2.3793  3.6637
  741ACTN    C3 7402   2.465   1.178   4.400  0.0773  0.3059  0.0009
  741ACTN    H4 7403   2.433   1.255   4.470 -1.3989  1.7033 -2.1477
  741ACTN    H5 7404   2.488   1.087   4.455 -2.0493 -0.3546 -0.1198
  741ACTN    C2 7405   2.576   1.220   4.311  0.6959  0.2319 -0.7652
  741ACTN    O1 7406   2.624   1.137   4.238 -0.2444  0.2874 -0.0510
  741ACTN    C1 7407   2.623   1.366   4.317  0.5199  0.3952  0.0942
  741ACTN    H1 7408   2.591   1.408   4.412 -0.2720 -0.8613  0.3969
  741ACTN    H2 7409   2.585   1.426   4.235  0.6710  3.0564  1.9293
  741ACTN    H3 7410   2.732   1.366   4.309  0.4704 -1.4168 -0.9478
  742ACTN    H6 7411   1.294   3.316   3.012  1.5331  0.3019  0.1580
  742ACTN    C3 7412   1.246   3.218   3.005  0.5520  0.7666  0.4158
  742ACTN    H4 7413   1.231   3.183   3.107 -1.8396 -1.6642 -0.7023
  742ACTN    H5 7414   1.143   3.231   2.969  0.6499 -2.3952 -1.1656
  742ACTN    C2 7415   1.333   3.119   2.931  0.3161 -0.1995 -0.1273
  742ACTN    O1 7416   1.315   2.998   2.934  0.4159  0.2456 -0.2033
  742ACTN    C1 7417   1.449   3.172   2.862  0.5280 -0.4534  0.2703
  742ACTN    H1 7418   1.527   3.189   2.936  1.6786 -1.7617 -0.6227
  742ACTN    H2 7419   1.411   3.267   2.823  1.9691  0.2531  0.5676
  742ACTN    H3 7420   1.493   3.107   2.786  2.2409  1.1481 -0.1537
  743ACTN    H6 7421   1.995   7.295   4.880  3.7296 -2.1730  0.9000
  743ACTN    C3 7422   2.013   7.359   4.966  0.3333  0.7452 -0.4147
  743ACTN    H4 7423   2.033   7.286   5.046 -2.2106  1.8531  1.2996
  743ACTN    H5 7424   2.104   7.414   4.945  1.0078  0.0339  0.5824
  743ACTN    C2 7425   1.895   7.449   4.974  0.1321  0.4442  0.1522
  743ACTN    O1 7426   1.784   7.403   4.959 -0.0589 -0.6135  0.6351
  743ACTN    C1 7427   1.917   7.595   5.000  0.4984  0.5478  0.3906
  743ACTN    H1 7428   1.995   7.622   5.072  0.8942 -1.5381  0.7776
  743ACTN    H2 7429   1.825   7.629   5.049  1.1607  0.6711  1.5754
  743ACTN    H3 7430   1.917   7.650   4.906 -0.6101 -0.5562 -0.2588
  744ACTN    H6 7431   2.716   6.789   6.748  0.0879  1.3022 -2.2108
  744ACTN    C3 7432   2.818   6.821   6.767  0.2518 -0.2876 -0.1770
  744ACTN    H4 7433   2.815   6.930   6.770 -0.6784 -0.2977 -0.5137
  744ACTN    H5 7434   2.860   6.797   6.865  2.3025 -0.8839 -1.1701
  744ACTN    C2 7435   2.910   6.773   6.666  0.2103 -0.2728 -0.2030
  744ACTN    O1 7436   2.962   6.847   6.579  0.1516 -0.2442 -0.2465
  744ACTN    C1 7437   2.920   6.626   6.637 -0.7144  0.1507  0.2565
  744ACTN    H1 7438   2.816   6.598   6.620 -1.6733  2.6084  1.6979
  744ACTN    H2 7439   2.954   6.578   6.728 -0.2875 -0.2531 -0.1163
  744ACTN    H3 7440   2.996   6.602   6.563  0.8605  3.2569  0.7791
  745ACTN    H6 7441   6.510   4.060   2.900  0.0564 -2.2917 -1.6666
  745ACTN    C3 7442   6.605   4.099   2.866 -0.2946  0.4931  0.3271
  745ACTN    H4 7443   6.661   4.127   2.956  1.4834 -0.9012 -0.3044
  745ACTN    H5 7444   6.670   4.030   2.812 -0.9364  0.5263 -0.5023
  745ACTN    C2 7445   6.589   4.228   2.788  0.2668 -0.2581  0.0327
  745ACTN    O1 7446   6.664   4.327   2.799 -0.0401  0.0295 -0.3708
  745ACTN    C1 7447   6.480   4.246   2.687  0.1260  0.9635 -0.6954
  745ACTN    H1 7448   6.397   4.294   2.739  0.5424 -2.3553  3.3140
  745ACTN    H2 7449   6.441   4.157   2.639  1.5167  0.8409 -1.6285
  745ACTN    H3 7450   6.515   4.310   2.606  1.7467  1.5175  0.3989
  746ACTN    H6 7451   0.851   5.694   3.336  0.1983 -0.1923 -0.0046
  746ACTN    C3 7452   0.941   5.744   3.301 -0.1835  0.0744 -0.6186
  746ACTN    H4 7453   1.024   5.723   3.368 -0.5489  1.1685  0.1748
  746ACTN    H5 7454   0.966   5.701   3.204  0.0867 -0.1585 -0.4458
  746ACTN    C2 7455   0.918   5.891   3.288  1.2535  0.2861  0.3638
  746ACTN    O1 7456   0.909   5.944   3.177 -0.2764  0.0454  0.2227
  746ACTN    C1 7457   0.870   5.965   3.408 -0.0110 -0.2952 -0.7436
  746ACTN    H1 7458   0.765   5.948   3.433  0.1185 -0.9509 -0.6400
  746ACTN    H2 7459   0.888   6.072   3.403  0.1869 -0.2684  0.4283
  746ACTN    H3 7460   0.928   5.930   3.493  1.6607  0.9826 -1.3459
  747ACTN    H6 7461   0.522   6.382   5.406 -0.0060 -2.1075 -0.0089
  747ACTN    C3 7462   0.606   6.345   5.348  0.7283  0.0028 -0.3460
  747ACTN    H4 7463   0.655   6.276   5.417 -1.8702  0.5170  2.0783
  747ACTN    H5 7464   0.576   6.281   5.265 -0.8894  0.6723 -0.2956
  747ACTN    C2 7465   0.707   6.451   5.322 -0.5745  0.3853  0.0920
  747ACTN    O1 7466   0.826   6.429   5.298 -0.5486 -0.4029  0.1850
  747ACTN    C1 7467   0.667   6.588   5.300 -0.0656 -0.7506  0.8738
  747ACTN    H1 7468   0.609   6.626   5.384 -1.5056  0.0570 -0.4691
  747ACTN    H2 7469   0.615   6.591   5.205  2.2500 -2.5696 -0.5073
  747ACTN    H3 7470   0.758   6.647   5.288  0.3011 -1.4911 -0.0194
  748ACTN    H6 7471   3.207   6.633   2.924  0.2629  0.0636  1.2271
  748ACTN    C3 7472   3.256   6.717   2.974  0.8734  0.2842  0.2567
  748ACTN    H4 7473   3.358   6.726   2.937  0.7904  0.1833  0.0008
  748ACTN    H5 7474   3.204   6.802   2.928 -1.0065 -0.6486  0.6384
  748ACTN    C2 7475   3.242   6.712   3.122 -0.3028  0.3955 -0.5144
  748ACTN    O1 7476   3.136   6.656   3.161 -0.4144 -0.1459 -0.0839
  748ACTN    C1 7477   3.351   6.728   3.215  0.1676  0.3175  0.4480
  748ACTN    H1 7478   3.326   6.764   3.315  2.1650  0.9764  0.7203
  748ACTN    H2 7479   3.418   6.805   3.177 -1.3238  0.2539 -2.4814
  748ACTN    H3 7480   3.394   6.628   3.217 -2.0687 -0.7735 -1.9620
  749ACTN    H6 7481   7.109   1.353   4.747  0.2021 -3.9615 -0.5362
  749ACTN    C3 7482   7.201   1.342   4.805  0.4467 -0.0128 -0.0368
  749ACTN    H4 7483   7.240   1.437   4.841 -0.2309  0.0154  0.6408
  749ACTN    H5 7484   7.187   1.288   4.899 -0.1693  0.7941  0.3472
  749ACTN    C2 7485   7.308   1.288   4.715  0.4899 -0.3762 -0.5023
  749ACTN    O1 7486   7.268   1.214   4.628 -0.1430 -0.1691  0.0744
  749ACTN    C1 7487   7.451   1.315   4.723  0.0396  0.3832  0.3375
  749ACTN    H1 7488   7.492   1.305   4.623 -1.6710  1.4163 -0.4973
  749ACTN    H2 7489   7.504   1.254   4.796 -1.9333 -0.5455  1.0525
  749ACTN    H3 7490   7.457   1.417   4.760 -1.6563  0.7003 -0.2117
  750ACTN    H6 7491   7.160   4.840   1.665  0.4458  3.4672 -1.4582
  750ACTN    C3 7492   7.161   4.813   1.559  0.1861 -0.7560 -0.4485
  750ACTN    H4 7493   7.102   4.721   1.559  1.1822 -1.4042  0.4500
  750ACTN    H5 7494   7.104   4.885   1.500 -1.1271 -0.6025  0.9776
  750ACTN    C2 7495   7.300   4.790   1.518  0.2169 -0.0169  0.2830
  750ACTN    O1 7496   7.324   4.782   1.399  0.3079  0.4741 -0.2764
  750ACTN    C1 7497   7.406   4.759   1.616 -1.0966 -0.3620 -0.0551
  750ACTN    H1 7498   7.406   4.652   1.639 -0.2221 -0.3005  0.2565
  750ACTN    H2 7499   7.409   4.820   1.706 -1.0491  1.5508 -1.3404
  750ACTN    H3 7500   7.501   4.784   1.568  0.4268 -1.2483  2.3892
  751ACTN    H6 7501   0.052   3.642   1.836  2.1078 -0.8723 -1.4869
  751ACTN    C3 7502   0.055   3.736   1.780 -0.3766  0.2723  0.2313
  751ACTN    H4 7503   0.135   3.721   1.707 -0.5238  2.5402 -0.4310
  751ACTN    H5 7504  -0.041   3.747   1.729 -0.3951 -2.3421 -0.3480
  751ACTN    C2 7505   0.082   3.854   1.862 -0.6604  0.0412  0.1978
  751ACTN    O1 7506   0.188   3.915   1.860 -0.7672  0.1808 -0.2602
  751ACTN    C1 7507  -0.011   3.894   1.968  0.1017 -0.8135  0.3280
  751ACTN    H1 7508   0.040   3.929   2.057 -0.3585 -3.0176  1.4931
  751ACTN    H2 7509  -0.069   3.805   1.995 -0.9083 -0.1888  0.2671
  751ACTN    H3 7510  -0.081   3.974   1.942 -0.1243 -1.4404 -1.0407
  752ACTN    H6 7511   6.615   6.158   6.882 -0.3613 -1.7403 -0.6239
  752ACTN    C3 7512   6.574   6.122   6.976  0.3786 -0.0557  0.3807
  752ACTN    H4 7513   6.498   6.191   7.011  0.2696 -0.2444  0.5163
  752ACTN    H5 7514   6.522   6.027   6.961  0.0955 -0.0266  1.1865
  752ACTN    C2 7515   6.687   6.116   7.075  0.0446 -0.1776  0.6000
  752ACTN    O1 7516   6.772   6.031   7.080  0.3551 -0.1385 -0.3389
  752ACTN    C1 7517   6.679   6.216   7.183 -0.6012  0.2785 -0.3968
  752ACTN    H1 7518   6.771   6.205   7.242 -0.5694 -0.1833 -0.5258
  752ACTN    H2 7519   6.598   6.186   7.249  0.3187 -0.2529  0.5207
  752ACTN    H3 7520   6.677   6.316   7.141 -1.4369  0.7370  0.7068
  753ACTN    H6 7521   2.802   0.031   4.648 -0.7109  2.1266 -1.7804
  753ACTN    C3 7522   2.910   0.046   4.654 -0.4802  0.3125 -1.0220
  753ACTN    H4 7523   2.968  -0.042   4.630  0.2444  0.8902 -1.4124
  753ACTN    H5 7524   2.940   0.116   4.576  0.4494 -2.3285 -3.0790
  753ACTN    C2 7525   2.946   0.091   4.793  0.1084  0.0430  0.5210
  753ACTN    O1 7526   2.862   0.131   4.871  0.3676  0.5969 -0.2951
  753ACTN    C1 7527   3.094   0.085   4.831 -0.6082  0.1996  0.4184
  753ACTN    H1 7528   3.155   0.114   4.745 -1.7498 -0.2775 -0.5782
  753ACTN    H2 7529   3.111  -0.021   4.851  0.6854  0.2504 -0.3554
  753ACTN    H3 7530   3.126   0.143   4.918  0.1069  0.9382 -0.3257
  754ACTN    H6 7531   0.076   1.851   1.346 -0.4768  1.0023 -1.2321
  754ACTN    C3 7532  -0.024   1.855   1.390 -0.0275 -0.2472 -0.0893
  754ACTN    H4 7533  -0.080   1.763   1.374 -0.0421 -0.6738  2.1837
  754ACTN    H5 7534  -0.001   1.863   1.497  1.2861  1.3295 -0.4719
  754ACTN    C2 7535  -0.095   1.981   1.345  0.1223 -0.3824  0.1235
  754ACTN    O1 7536  -0.052   2.097   1.350 -0.3456 -0.4013  0.2314
  754ACTN    C1 7537  -0.241   1.961   1.325 -0.1377  0.9637  0.0386
  754ACTN    H1 7538  -0.273   1.941   1.223  0.9043 -1.2791  0.1292
  754ACTN    H2 7539  -0.300   2.048   1.355  0.3355  0.8007  1.5224
  754ACTN    H3 7540  -0.275   1.874   1.380 -0.8796  0.6884 -0.8634
  755ACTN    H6 7541   3.686   0.976   5.905 -0.6047  0.9411  1.0633
  755ACTN    C3 7542   3.623   0.978   5.816  0.1621 -0.1626  0.4915
  755ACTN    H4 7543   3.537   1.038   5.847 -1.6362 -2.1788 -0.4202
  755ACTN    H5 7544   3.677   1.038   5.743 -0.1666  1.2509  1.4071
  755ACTN    C2 7545   3.567   0.842   5.780 -0.4705 -0.8895  0.1604
  755ACTN    O1 7546   3.566   0.761   5.877 -0.0824  0.2448  0.2882
  755ACTN    C1 7547   3.454   0.841   5.685  0.8715 -0.0645  0.7506
  755ACTN    H1 7548   3.493   0.900   5.602  2.2668 -0.9377  0.7709
  755ACTN    H2 7549   3.362   0.894   5.711 -0.1546 -1.5427  0.2710
  755ACTN    H3 7550   3.436   0.737   5.658 -0.5346  0.1802  0.6751
  756ACTN    H6 7551   2.374   6.877   3.248  0.5638 -1.1361  1.7339
  756ACTN    C3 7552   2.292   6.804   3.240 -0.3089 -0.0647  0.7157
  756ACTN    H4 7553   2.229   6.812   3.329  0.0425 -1.8070  1.1385
  756ACTN    H5 7554   2.229   6.824   3.154  0.9752 -2.6717 -0.8936
  756ACTN    C2 7555   2.354   6.672   3.228  0.1956 -0.0223  0.8486
  756ACTN    O1 7556   2.277   6.580   3.193  0.2909  0.5067 -0.1178
  756ACTN    C1 7557   2.501   6.643   3.245 -0.3396 -0.9921  0.2903
  756ACTN    H1 7558   2.533   6.669   3.346 -2.2173  0.1588  0.6092
  756ACTN    H2 7559   2.558   6.697   3.170 -3.4798  1.5532 -0.3496
  756ACTN    H3 7560   2.523   6.537   3.232 -0.4838 -0.7759 -1.9451
  757ACTN    H6 7561   2.034   2.115   1.390 -1.6955  0.3994  1.0978
  757ACTN    C3 7562   2.098   2.184   1.444 -0.1812 -0.0925 -0.0444
  757ACTN    H4 7563   2.119   2.145   1.544  0.2285  1.4834  0.4946
  757ACTN    H5 7564   2.192   2.207   1.394 -0.4831  0.1674 -0.4975
  757ACTN    C2 7565   2.025   2.319   1.465 -0.2559  1.1019 -0.1008
  757ACTN    O1 7566   1.980   2.376   1.367 -0.0484 -0.1323  0.0254
  757ACTN    C1 7567   2.025   2.367   1.603  0.3208  0.2913  0.2641
  757ACTN    H1 7568   1.925   2.348   1.642 -0.3052  1.7592 -0.6135
  757ACTN    H2 7569   2.054   2.471   1.616 -1.2427  0.6044  1.4571
  757ACTN    H3 7570   2.098   2.311   1.661  1.2803  2.2219  0.9580
  758ACTN    H6 7571   1.200   6.417   2.247  1.7343 -0.0094  1.0351
  758ACTN    C3 7572   1.213   6.331   2.180 -0.7081  0.4889 -0.1217
  758ACTN    H4 7573   1.116   6.290   2.154 -1.2569  0.5109  1.8214
  758ACTN    H5 7574   1.267   6.359   2.089  2.4807  1.9723  2.0965
  758ACTN    C2 7575   1.284   6.221   2.254  0.1440  0.7376 -0.0105
  758ACTN    O1 7576   1.384   6.247   2.311  0.0314 -0.0375  0.0160
  758ACTN    C1 7577   1.221   6.091   2.247  0.5335  0.9119 -0.5104
  758ACTN    H1 7578   1.121   6.096   2.292  1.0151  2.5067  0.4088
  758ACTN    H2 7579   1.286   6.015   2.289  1.8702  1.0550 -2.2802
  758ACTN    H3 7580   1.212   6.068   2.141  2.6832  0.4886 -0.6204
  759ACTN    H6 7581   3.981   5.645   4.401  0.0848 -0.0216 -0.7093
  759ACTN    C3 7582   3.873   5.651   4.410  0.0250 -1.2249 -0.4546
  759ACTN    H4 7583   3.828   5.640   4.311 -1.0583 -4.1525  0.3096
  759ACTN    H5 7584   3.839   5.559   4.456  2.4363 -1.6152  0.6126
  759ACTN    C2 7585   3.847   5.778   4.482  0.4568 -0.4401 -0.4007
  759ACTN    O1 7586   3.909   5.816   4.579 -0.5119 -0.4162  0.0558
  759ACTN    C1 7587   3.715   5.838   4.460 -0.1017 -0.4132  0.3055
  759ACTN    H1 7588   3.713   5.941   4.494  2.9704 -0.2752  0.2109
  759ACTN    H2 7589   3.651   5.774   4.520  0.7311  0.9909  2.7555
  759ACTN    H3 7590   3.674   5.830   4.359  0.4104 -0.6057  0.1061
  760ACTN    H6 7591   5.410   1.588   5.440  2.3857  2.7500 -0.8501
  760ACTN    C3 7592   5.353   1.585   5.347  0.0206 -0.6755  0.5924
  760ACTN    H4 7593   5.431   1.565   5.273 -0.9044  0.9287 -0.8645
  760ACTN    H5 7594   5.279   1.506   5.358 -1.1398  0.2381 -0.4299
  760ACTN    C2 7595   5.287   1.716   5.305  0.2892 -0.3603  0.1090
  760ACTN    O1 7596   5.315   1.820   5.363  0.0679 -0.3410 -0.0053
  760ACTN    C1 7597   5.179   1.720   5.203 -0.0069  0.4682 -0.2353
  760ACTN    H1 7598   5.085   1.757   5.242 -0.3180  0.7476 -1.2334
  760ACTN    H2 7599   5.161   1.617   5.172 -1.5647 -0.5652  3.8040
  760ACTN    H3 7600   5.209   1.778   5.116  2.7293  1.6799  1.4373
  761ACTN    H6 7601   1.181   1.276   6.103  1.9645  1.1603  0.7942
  761ACTN    C3 7602   1.208   1.185   6.156 -0.5707  0.0130  0.1696
  761ACTN    H4 7603   1.126   1.154   6.222 -0.5185  0.5487  0.4896
  761ACTN    H5 7604   1.212   1.096   6.092  0.9164 -0.5234  0.9830
  761ACTN    C2 7605   1.336   1.200   6.229 -0.0215  0.0714 -0.6030
  761ACTN    O1 7606   1.424   1.121   6.206 -0.6120 -0.9984 -0.1989
  761ACTN    C1 7607   1.354   1.315   6.324 -0.9374 -0.1485 -0.8909
  761ACTN    H1 7608   1.298   1.305   6.417  3.0133 -1.2265  1.4686
  761ACTN    H2 7609   1.329   1.408   6.271  2.5440  1.0859 -0.4827
  761ACTN    H3 7610   1.459   1.335   6.343 -0.5854 -0.9902 -1.9160
  762ACTN    H6 7611   1.114   1.130   2.202 -1.1800 -0.2889  1.0527
  762ACTN    C3 7612   1.202   1.118   2.265  0.1825 -0.0783 -0.7935
  762ACTN    H4 7613   1.190   1.088   2.369 -1.5120  5.0119  0.6125
  762ACTN    H5 7614   1.265   1.043   2.216  2.2654  0.0552  1.6023
  762ACTN    C2 7615   1.271   1.251   2.250 -0.5179  0.6707  0.4239
  762ACTN    O1 7616   1.225   1.354   2.302  0.1721  0.0716 -0.2127
  762ACTN    C1 7617   1.389   1.255   2.151 -0.1198 -0.4062  0.2827
  762ACTN    H1 7618   1.470   1.301   2.207  0.3416 -0.1294 -0.5906
  762ACTN    H2 7619   1.361   1.316   2.064 -0.4585  0.2384  0.8395
  762ACTN    H3 7620   1.429   1.160   2.117 -0.2614  0.0430 -1.1938
  763ACTN    H6 7621   6.366   1.965   2.942 -0.6998 -1.4823  0.5893
  763ACTN    C3 7622   6.442   1.928   3.011 -0.0318 -0.1646  0.5738
  763ACTN    H4 7623   6.497   2.019   3.037 -0.4290 -0.1937  1.5410
  763ACTN    H5 7624   6.397   1.883   3.099  0.0441 -0.0633  0.6644
  763ACTN    C2 7625   6.527   1.838   2.941  0.4695 -0.3165  0.0458
  763ACTN    O1 7626   6.633   1.876   2.895 -0.4974  0.1519 -0.3789
  763ACTN    C1 7627   6.471   1.701   2.905  0.4100 -0.0211  1.0717
  763ACTN    H1 7628   6.447   1.693   2.798  1.6990  1.4367  0.6460
  763ACTN    H2 7629   6.379   1.690   2.963  0.1472  1.2122  0.9069
  763ACTN    H3 7630   6.538   1.619   2.927  0.2016  0.3669  3.2437
  764ACTN    H6 7631   7.113   5.869   3.709 -1.0855  2.2338  0.3638
  764ACTN    C3 7632   7.020   5.817   3.729 -0.2576  0.3607 -0.4995
  764ACTN    H4 7633   6.950   5.832   3.647 -1.0912  0.7310  0.2719
  764ACTN    H5 7634   7.041   5.713   3.754 -0.8114  0.4819  0.5230
  764ACTN    C2 7635   6.951   5.880   3.848 -0.2021 -0.8300  0.4947
  764ACTN    O1 7636   6.951   6.003   3.864  0.5577 -0.3794  0.3248
  764ACTN    C1 7637   6.911   5.798   3.961  0.6461  0.3443 -0.2141
  764ACTN    H1 7638   6.966   5.833   4.049 -1.5268  1.2585  0.8164
  764ACTN    H2 7639   6.940   5.695   3.943  1.0145  0.9785 -3.4758
  764ACTN    H3 7640   6.804   5.793   3.979  0.4708 -2.4358 -1.7874
  765ACTN    H6 7641   5.404   1.948   7.211 -0.4120  0.0602 -0.5138
  765ACTN    C3 7642   5.476   1.951   7.293 -0.8217 -0.4035 -0.1330
  765ACTN    H4 7643   5.516   2.052   7.304  1.6408 -1.5416  1.8949
  765ACTN    H5 7644   5.420   1.941   7.386  1.0052  1.9871  1.2979
  765ACTN    C2 7645   5.577   1.846   7.268 -0.4199 -0.0621 -0.2885
  765ACTN    O1 7646   5.646   1.804   7.360 -0.0549 -0.4637  0.3020
  765ACTN    C1 7647   5.568   1.782   7.138  0.2152 -0.2192  0.6575
  765ACTN    H1 7648   5.627   1.690   7.143  0.7357  0.0214 -0.9749
  765ACTN    H2 7649   5.610   1.840   7.055  0.9855 -3.0357 -0.9851
  765ACTN    H3 7650   5.465   1.756   7.116 -0.1026  0.4836  1.3144
  766ACTN    H6 7651   2.418   6.945   5.290  1.3543 -0.7795  2.1441
  766ACTN    C3 7652   2.345   7.020   5.321  0.0247 -0.9221 -0.6085
  766ACTN    H4 7653   2.253   6.960   5.315 -0.9646  0.3997  0.9891
  766ACTN    H5 7654   2.367   7.057   5.420 -1.7484  0.8949 -0.8570
  766ACTN    C2 7655   2.359   7.130   5.221  0.6236  0.1141  0.4411
  766ACTN    O1 7656   2.313   7.121   5.110 -0.7353  0.3138 -0.7105
  766ACTN    C1 7657   2.423   7.263   5.249  0.2612 -0.4128 -0.0896
  766ACTN    H1 7658   2.426   7.296   5.352  0.4584  0.3628 -0.3430
  766ACTN    H2 7659   2.379   7.346   5.194 -2.3138 -2.2207 -0.8876
  766ACTN    H3 7660   2.529   7.262   5.224  0.1095 -2.7842 -0.8431
  767ACTN    H6 7661   6.871   6.618   2.325 -1.7420  0.1156 -0.3371
  767ACTN    C3 7662   6.890   6.589   2.428 -0.2842  0.3618 -0.5129
  767ACTN    H4 7663   6.993   6.611   2.456 -0.1382 -1.4689  0.4877
  767ACTN    H5 7664   6.828   6.654   2.491  2.3394  1.1587  1.3126
  767ACTN    C2 7665   6.848   6.437   2.442 -0.2064 -0.5827  0.1251
  767ACTN    O1 7666   6.769   6.387   2.358 -0.4546 -0.2251  0.7150
  767ACTN    C1 7667   6.924   6.364   2.542 -0.1048 -0.0310 -0.1545
  767ACTN    H1 7668   6.959   6.271   2.497  0.0047 -0.8354  1.5507
  767ACTN    H2 7669   6.854   6.354   2.625  1.6221  1.7029  1.5792
  767ACTN    H3 7670   7.005   6.432   2.571 -0.0520 -0.6123  1.0729
  768ACTN    H6 7671   0.963   0.573   4.941 -0.8429  0.0481  0.3923
  768ACTN    C3 7672   0.920   0.657   4.996 -0.4579  0.3337  0.2582
  768ACTN    H4 7673   0.957   0.747   4.947  3.8466 -1.3154  0.2854
  768ACTN    H5 7674   0.811   0.656   4.990 -0.3724 -1.3659 -1.3268
  768ACTN    C2 7675   0.973   0.663   5.133  0.1599  0.4804 -0.1804
  768ACTN    O1 7676   0.905   0.676   5.234  0.0623  0.0420  0.1141
  768ACTN    C1 7677   1.126   0.664   5.141  0.0355  0.8282  0.5631
  768ACTN    H1 7678   1.178   0.592   5.078  0.9061  1.3438  0.6912
  768ACTN    H2 7679   1.168   0.649   5.241 -1.0439 -3.5019  0.4672
  768ACTN    H3 7680   1.152   0.763   5.106 -2.1248  0.2210 -2.9414
  769ACTN    H6 7681   2.605   0.916   5.277 -0.3641  1.6724  0.6612
  769ACTN    C3 7682   2.661   0.967   5.198 -0.0145  0.1162 -0.1326
  769ACTN    H4 7683   2.666   0.904   5.110  1.5246  0.9443 -0.6542
  769ACTN    H5 7684   2.595   1.050   5.173 -0.6257 -0.2470  0.2486
  769ACTN    C2 7685   2.798   1.016   5.243  0.4326 -0.4780  0.0303
  769ACTN    O1 7686   2.808   1.032   5.365 -0.0047 -0.1364 -0.4066
  769ACTN    C1 7687   2.915   1.033   5.148  1.1466 -0.4489  0.5462
  769ACTN    H1 7688   2.867   1.030   5.051 -2.8303 -0.2798  2.4362
  769ACTN    H2 7689   2.978   0.945   5.166  1.5872 -0.1860  0.3090
  769ACTN    H3 7690   2.980   1.117   5.171 -0.2928  1.3615 -1.8151
  770ACTN    H6 7691   3.960   3.693   3.944  0.3501  1.3097 -0.4406
  770ACTN    C3 7692   4.058   3.647   3.936 -0.2502  0.0807 -0.8451
  770ACTN    H4 7693   4.102   3.689   3.845  0.2047 -1.3962 -1.3279
  770ACTN    H5 7694   4.119   3.677   4.021 -1.2477  0.3104 -0.2095
  770ACTN    C2 7695   4.051   3.501   3.916  0.1697  1.1581  0.1984
  770ACTN    O1 7696   4.059   3.456   3.801  0.7549  0.3831  0.0631
  770ACTN    C1 7697   3.984   3.422   4.031  0.8232  0.2666  0.2412
  770ACTN    H1 7698   4.037   3.326   4.032  1.3131  0.4046 -3.4904
  770ACTN    H2 7699   3.880   3.397   4.010  0.5716  0.4803  1.2004
  770ACTN    H3 7700   3.990   3.471   4.128 -2.6943  0.1667  0.5860
  771ACTN    H6 7701   4.703   2.169   2.358  0.7629 -0.5081 -0.3398
  771ACTN    C3 7702   4.629   2.091   2.342  0.2866 -0.1290 -0.0468
  771ACTN    H4 7703   4.555   2.136   2.276  1.7189  0.2033 -1.4876
  771ACTN    H5 7704   4.672   2.018   2.272 -2.1752 -1.8315  0.1637
  771ACTN    C2 7705   4.571   2.032   2.462  0.0310  0.3261  0.5593
  771ACTN    O1 7706   4.614   2.063   2.573  0.3636  0.2284 -0.0993
  771ACTN    C1 7707   4.513   1.894   2.444 -0.1479 -0.2321 -0.2390
  771ACTN    H1 7708   4.421   1.897   2.385 -0.5217  0.5653  0.3674
  771ACTN    H2 7709   4.494   1.847   2.540 -3.8871 -1.6407 -1.5636
  771ACTN    H3 7710   4.587   1.834   2.391 -1.4922 -0.9368 -1.3544
  772ACTN    H6 7711   4.727   4.114   7.145  1.6328  0.1435  2.7579
  772ACTN    C3 7712   4.681   4.212   7.134  0.5595 -0.5792  0.5110
  772ACTN    H4 7713   4.595   4.220   7.201 -1.7668 -0.5308 -2.3736
  772ACTN    H5 7714   4.758   4.281   7.168 -0.8065 -0.2526  3.0143
  772ACTN    C2 7715   4.641   4.236   6.993 -0.3806 -0.6519  0.1028
  772ACTN    O1 7716   4.726   4.268   6.913  0.0890 -0.0851 -0.9491
  772ACTN    C1 7717   4.496   4.217   6.949  0.3229  0.3268  0.0820
  772ACTN    H1 7718   4.488   4.177   6.848 -0.9847  0.2379  0.2237
  772ACTN    H2 7719   4.444   4.313   6.946  1.0187  0.6655 -1.5298
  772ACTN    H3 7720   4.444   4.151   7.019 -0.5170 -1.0075 -1.7794
  773ACTN    H6 7721   0.450   1.034   5.631  1.8323 -0.0772  2.4278
  773ACTN    C3 7722   0.540   1.034   5.570  0.0293  0.1776 -0.2996
  773ACTN    H4 7723   0.622   0.973   5.606 -0.4596 -1.2560 -1.5766
  773ACTN    H5 7724   0.518   0.983   5.476  2.0527  0.2213 -0.8281
  773ACTN    C2 7725   0.594   1.178   5.560  0.1491 -0.7541  0.4880
  773ACTN    O1 7726   0.612   1.229   5.448  0.3949 -0.0981  0.3188
  773ACTN    C1 7727   0.606   1.260   5.684  0.0812  0.5728  0.1297
  773ACTN    H1 7728   0.597   1.207   5.779  2.1029  0.4835  0.2885
  773ACTN    H2 7729   0.535   1.343   5.690 -1.3121 -0.4427 -1.8186
  773ACTN    H3 7730   0.707   1.301   5.688  0.7106 -0.8979 -0.4233
  774ACTN    H6 7731   7.167   5.410   1.201 -0.2831  0.3968  0.6261
  774ACTN    C3 7732   7.121   5.492   1.145  0.0255  0.2443  0.1491
  774ACTN    H4 7733   7.018   5.494   1.179 -0.4710 -2.3342 -1.0431
  774ACTN    H5 7734   7.171   5.588   1.156  1.6772 -0.3709 -1.6646
  774ACTN    C2 7735   7.110   5.458   1.002  0.2423 -0.0554 -0.5646
  774ACTN    O1 7736   7.212   5.455   0.936 -0.4363  0.1821  0.2502
  774ACTN    C1 7737   6.970   5.437   0.945  0.2400 -0.5966 -0.8911
  774ACTN    H1 7738   6.898   5.494   1.004 -1.6376 -1.5741 -2.2100
  774ACTN    H2 7739   6.943   5.333   0.961  0.9485 -0.2824  2.8215
  774ACTN    H3 7740   6.955   5.463   0.840 -2.8114  0.2610 -0.2771
  775ACTN    H6 7741   1.232   7.141   4.969 -1.0007 -3.8882 -1.1707
  775ACTN    C3 7742   1.336   7.110   4.984  0.0458 -0.2197 -0.4105
  775ACTN    H4 7743   1.353   7.019   4.927  0.9400 -0.3101  0.0015
  775ACTN    H5 7744   1.397   7.197   4.959  2.3404 -1.4776  0.7131
  775ACTN    C2 7745   1.343   7.088   5.136  0.0109 -0.6815  0.0204
  775ACTN    O1 7746   1.401   7.171   5.206  0.2478  0.4000 -0.4028
  775ACTN    C1 7747   1.267   6.970   5.197 -0.1077 -0.3534 -0.2072
  775ACTN    H1 7748   1.187   6.937   5.130  0.2207  1.2379 -1.3962
  775ACTN    H2 7749   1.233   7.000   5.296 -2.2756  2.7846 -1.8360
  775ACTN    H3 7750   1.341   6.892   5.213  2.3498  1.7496 -1.0184
  776ACTN    H6 7751   0.378   4.614   4.002 -1.4841 -0.1496  1.2492
  776ACTN    C3 7752   0.398   4.712   4.045 -0.3141  0.1511  0.0537
  776ACTN    H4 7753   0.346   4.777   3.976  0.1199  1.9274  1.3433
  776ACTN    H5 7754   0.345   4.713   4.140  0.3789  0.6730  0.4419
  776ACTN    C2 7755   0.541   4.754   4.060 -0.6948  0.6521 -0.0698
  776ACTN    O1 7756   0.563   4.875   4.073  0.2836  0.2109 -0.1267
  776ACTN    C1 7757   0.636   4.641   4.089 -0.0355 -0.2993 -0.9554
  776ACTN    H1 7758   0.617   4.599   4.188 -0.3055 -0.8601 -1.2432
  776ACTN    H2 7759   0.741   4.669   4.099  0.4627 -2.9298  1.8407
  776ACTN    H3 7760   0.617   4.557   4.022 -0.6266 -1.1177  0.2173
  777ACTN    H6 7761   2.864   6.915   3.891 -1.2518 -0.0602 -0.4707
  777ACTN    C3 7762   2.837   6.935   3.995 -0.8131 -0.5675 -0.2578
  777ACTN    H4 7763   2.752   6.875   4.027 -1.6330  0.6026 -0.2164
  777ACTN    H5 7764   2.929   6.911   4.048  0.0137  2.0818 -0.3900
  777ACTN    C2 7765   2.808   7.078   4.016  0.1322 -0.0243  0.1079
  777ACTN    O1 7766   2.798   7.131   4.125 -0.1579 -0.4117  0.3437
  777ACTN    C1 7767   2.810   7.167   3.893 -0.6179  0.9322  0.3980
  777ACTN    H1 7768   2.760   7.260   3.918  2.8642  3.1489 -0.4083
  777ACTN    H2 7769   2.760   7.128   3.804 -0.0376 -0.1758  0.5396
  777ACTN    H3 7770   2.908   7.198   3.856  0.0359  0.4995  1.7415
  778ACTN    H6 7771   1.850   6.958   3.127 -0.3376 -0.0843  0.3903
  778ACTN    C3 7772   1.813   6.968   3.229 -0.6507  0.0940  0.2594
  778ACTN    H4 7773   1.887   6.928   3.298  1.8020  1.4741 -1.4922
  778ACTN    H5 7774   1.790   7.072   3.252  0.9311  0.7633 -1.1394
  778ACTN    C2 7775   1.677   6.891   3.232 -0.3710 -0.5936  0.2023
  778ACTN    O1 7776   1.659   6.800   3.159  0.0486  0.0487  0.6867
  778ACTN    C1 7777   1.568   6.943   3.312 -0.1501 -0.1848 -0.4389
  778ACTN    H1 7778   1.588   7.048   3.331 -4.9178  0.1798  3.6799
  778ACTN    H2 7779   1.554   6.893   3.408 -1.4290  1.3884  0.2008
  778ACTN    H3 7780   1.476   6.943   3.254 -0.3040  1.3736 -0.2058
  779ACTN    H6 7781   4.769   2.531   4.925  0.8035  1.8421  0.4390
  779ACTN    C3 7782   4.865   2.561   4.882  1.2416  0.2263  0.2335
  779ACTN    H4 7783   4.868   2.670   4.875  0.5055  0.3724  1.7831
  779ACTN    H5 7784   4.944   2.532   4.952  2.0040 -2.0581 -1.5130
  779ACTN    C2 7785   4.900   2.490   4.755 -0.5822 -0.2235  0.0844
  779ACTN    O1 7786   4.867   2.376   4.734  0.3931  0.2205 -0.4941
  779ACTN    C1 7787   4.955   2.573   4.643 -0.4137  0.3265 -0.1035
  779ACTN    H1 7788   4.969   2.520   4.549 -1.2293  1.6421 -0.9899
  779ACTN    H2 7789   5.047   2.625   4.672 -0.8336  0.5013  0.9279
  779ACTN    H3 7790   4.880   2.650   4.629 -0.1433  0.8411  1.1790
  780ACTN    H6 7791   3.682   5.861   0.810  0.5882 -1.2666 -1.1219
  780ACTN    C3 7792   3.616   5.775   0.797 -0.0894 -0.9292  0.0255
  780ACTN    H4 7793   3.659   5.725   0.710 -1.0418 -1.1619 -0.3116
  780ACTN    H5 7794   3.619   5.706   0.882 -2.1394  1.0796  1.7976
  780ACTN    C2 7795   3.476   5.823   0.767 -1.0501  0.0120  0.5242
  780ACTN    O1 7796   3.450   5.938   0.738  0.0049 -0.3433  0.2725
  780ACTN    C1 7797   3.373   5.714   0.783  0.1042  0.0148  0.3576
  780ACTN    H1 7798   3.272   5.756   0.785 -0.2224 -0.7890  1.5063
  780ACTN    H2 7799   3.384   5.664   0.879 -0.6633 -0.6163  0.1233
  780ACTN    H3 7800   3.371   5.639   0.703 -0.6339 -2.3522  2.4998
  781ACTN    H6 7801   3.940   4.324   2.891  0.0804  0.0644  0.2692
  781ACTN    C3 7802   3.841   4.281   2.875  0.6604 -1.1984  0.0102
  781ACTN    H4 7803   3.854   4.194   2.810  0.3797 -0.9826 -0.3300
  781ACTN    H5 7804   3.806   4.254   2.975 -1.0303 -0.0898 -0.2757
  781ACTN    C2 7805   3.755   4.388   2.803  0.7189  0.5419 -0.6712
  781ACTN    O1 7806   3.805   4.497   2.789 -0.0832 -0.0063  0.5061
  781ACTN    C1 7807   3.608   4.371   2.785  0.7646  0.7120  0.0641
  781ACTN    H1 7808   3.565   4.430   2.705 -0.0548  0.0585  0.0104
  781ACTN    H2 7809   3.550   4.390   2.876 -1.0411  1.0076 -1.1121
  781ACTN    H3 7810   3.585   4.267   2.760 -1.6466  2.1214 -3.9980
  782ACTN    H6 7811   7.163   0.125   4.045 -0.0329  0.8235  1.4117
  782ACTN    C3 7812   7.257   0.138   3.990 -0.0254  0.2131  1.2807
  782ACTN    H4 7813   7.299   0.038   3.979  1.7721  0.9731  1.0642
  782ACTN    H5 7814   7.233   0.168   3.888 -0.7271 -0.2846  1.2882
  782ACTN    C2 7815   7.337   0.240   4.067 -0.5282 -0.3185  0.4714
  782ACTN    O1 7816   7.410   0.313   4.002 -0.0537 -0.0643  0.2797
  782ACTN    C1 7817   7.286   0.292   4.201  0.5956 -0.0395 -0.0149
  782ACTN    H1 7818   7.189   0.244   4.212  1.3963 -1.8666 -0.8597
  782ACTN    H2 7819   7.278   0.401   4.206  0.5580  0.0373 -1.5811
  782ACTN    H3 7820   7.351   0.252   4.279 -0.9917 -4.5124 -0.8666
  783ACTN    H6 7821   3.418   3.293   2.698  0.9017  1.7283  2.5445
  783ACTN    C3 7822   3.365   3.215   2.753  0.4984 -0.2413 -0.4983
  783ACTN    H4 7823   3.274   3.193   2.699 -0.2913  0.2531  0.5989
  783ACTN    H5 7824   3.427   3.126   2.751  1.2965  0.1181  3.2255
  783ACTN    C2 7825   3.332   3.266   2.891  0.0193 -0.5013 -0.6310
  783ACTN    O1 7826   3.218   3.282   2.930  1.2412  0.3438  0.4741
  783ACTN    C1 7827   3.449   3.307   2.975  0.2806  0.0500  0.4233
  783ACTN    H1 7828   3.540   3.258   2.941 -0.0709  1.5021 -2.7585
  783ACTN    H2 7829   3.441   3.296   3.083 -2.8365  0.1197  0.2667
  783ACTN    H3 7830   3.458   3.412   2.945 -0.1696 -0.0941 -0.2225
  784ACTN    H6 7831   1.734   1.094   4.457 -0.5391 -0.3091  0.5455
  784ACTN    C3 7832   1.652   1.023   4.450 -0.2919 -0.5075 -0.4089
  784ACTN    H4 7833   1.552   1.064   4.464 -0.4729 -0.0540 -2.8311
  784ACTN    H5 7834   1.657   0.973   4.353  3.2708  1.0460 -1.0939
  784ACTN    C2 7835   1.686   0.933   4.565 -0.1215 -0.4686  0.0791
  784ACTN    O1 7836   1.678   0.986   4.677  0.2180  0.2497  0.0985
  784ACTN    C1 7837   1.732   0.792   4.555 -0.6637 -0.3488 -0.4711
  784ACTN    H1 7838   1.753   0.770   4.450  0.2759  0.4244 -0.4459
  784ACTN    H2 7839   1.653   0.723   4.584  0.3572 -1.1655  0.3976
  784ACTN    H3 7840   1.825   0.767   4.605  0.5825 -1.0046 -3.0264
  785ACTN    H6 7841   4.773   1.784   5.135 -1.4477  0.9142 -1.3006
  785ACTN    C3 7842   4.714   1.692   5.131 -0.4193  0.2065 -0.4857
  785ACTN    H4 7843   4.629   1.703   5.197 -0.5805  0.9973 -0.8162
  785ACTN    H5 7844   4.684   1.678   5.027 -2.2262  2.2950 -0.2859
  785ACTN    C2 7845   4.804   1.584   5.176  0.8087 -0.1902 -0.2042
  785ACTN    O1 7846   4.837   1.571   5.297 -0.1613  0.3157 -0.5892
  785ACTN    C1 7847   4.857   1.477   5.076  0.7750 -0.1037  0.0148
  785ACTN    H1 7848   4.790   1.393   5.093 -1.5677  1.8735  0.9205
  785ACTN    H2 7849   4.961   1.448   5.085  0.5989 -0.3580  1.4883
  785ACTN    H3 7850   4.847   1.513   4.974  0.6282 -0.4021 -0.0751
  786ACTN    H6 7851   5.193   0.470   0.739 -0.3651 -0.4890 -0.5439
  786ACTN    C3 7852   5.250   0.397   0.682  0.7621 -0.1662  0.1452
  786ACTN    H4 7853   5.193   0.361   0.596 -0.9383  0.2940  1.0515
  786ACTN    H5 7854   5.348   0.433   0.649  0.3362  1.4577  0.6212
  786ACTN    C2 7855   5.271   0.285   0.781  0.4104  0.6327 -0.3684
  786ACTN    O1 7856   5.282   0.305   0.904  0.0402  0.0154 -0.0265
  786ACTN    C1 7857   5.252   0.148   0.725  0.1480  0.2342 -0.1909
  786ACTN    H1 7858   5.274   0.134   0.619  1.5267  0.9579 -0.0047
  786ACTN    H2 7859   5.154   0.102   0.739  1.0572 -1.8247 -0.3914
  786ACTN    H3 7860   5.319   0.078   0.774  0.4391  2.9249  3.4156
  787ACTN    H6 7861   0.412   1.300   6.735  1.1715 -1.0924 -0.1205
  787ACTN    C3 7862   0.384   1.237   6.820 -0.2569 -0.2631  0.0492
  787ACTN    H4 7863   0.462   1.163   6.837 -0.2902 -0.7894 -1.9561
  787ACTN    H5 7864   0.376   1.299   6.909 -1.4275 -0.2903 -0.0279
  787ACTN    C2 7865   0.252   1.164   6.817  0.2673 -0.6142 -0.0815
  787ACTN    O1 7866   0.243   1.065   6.888  0.4587 -0.2435 -0.0513
  787ACTN    C1 7867   0.163   1.196   6.700 -0.0477  0.2863 -0.1664
  787ACTN    H1 7868   0.081   1.123   6.699  0.7159 -0.6122  1.2689
  787ACTN    H2 7869   0.224   1.182   6.611  0.4052 -1.2957  0.3862
  787ACTN    H3 7870   0.123   1.297   6.692 -1.9919 -0.6017 -2.3414
  788ACTN    H6 7871   2.735   3.379   3.741 -0.0574 -0.7651  0.8006
  788ACTN    C3 7872   2.836   3.369   3.782  0.5159  0.4643 -0.2560
  788ACTN    H4 7873   2.905   3.440   3.738 -0.0442  0.4060 -1.2397
  788ACTN    H5 7874   2.830   3.388   3.889 -1.2544 -0.2817 -0.1949
  788ACTN    C2 7875   2.864   3.219   3.765 -0.0399  0.0614  0.1305
  788ACTN    O1 7876   2.971   3.183   3.715 -0.6944  0.3893  0.2702
  788ACTN    C1 7877   2.785   3.135   3.858 -0.3823 -0.1184  0.0836
  788ACTN    H1 7878   2.737   3.199   3.932  2.5953  3.1046 -0.6208
  788ACTN    H2 7879   2.851   3.065   3.910  1.0102 -1.9808 -3.9170
  788ACTN    H3 7880   2.706   3.077   3.811 -0.0758 -1.2937  0.9876
  789ACTN    H6 7881   0.482   3.076   1.692 -0.6429  2.0537  0.6829
  789ACTN    C3 7882   0.388   3.034   1.657  0.0603  0.7454  0.3599
  789ACTN    H4 7883   0.351   3.094   1.574  0.0329 -0.1475 -0.2874
  789ACTN    H5 7884   0.404   2.929   1.630 -1.9025  0.7395 -0.9246
  789ACTN    C2 7885   0.284   3.041   1.760  0.1641 -0.1828 -0.0711
  789ACTN    O1 7886   0.219   2.945   1.794 -0.1172  0.0632 -0.2275
  789ACTN    C1 7887   0.270   3.169   1.837  0.4689  0.7477 -0.2594
  789ACTN    H1 7888   0.318   3.166   1.935 -0.9850 -2.2674  0.4212
  789ACTN    H2 7889   0.162   3.181   1.850  0.1400 -0.1545 -1.9996
  789ACTN    H3 7890   0.313   3.253   1.784  0.6526  0.7199 -0.1552
  790ACTN    H6 7891   5.036   2.510   6.419 -0.6380  0.1344  0.5842
  790ACTN    C3 7892   5.025   2.610   6.378  0.4943 -0.1274 -0.3855
  790ACTN    H4 7893   5.076   2.614   6.281 -1.9804 -0.4628 -1.7248
  790ACTN    H5 7894   4.920   2.632   6.363  0.5121 -0.6743 -1.3572
  790ACTN    C2 7895   5.077   2.716   6.466 -0.1015  0.3382 -0.3089
  790ACTN    O1 7896   5.069   2.691   6.586 -0.1455 -0.1907 -0.2977
  790ACTN    C1 7897   5.180   2.812   6.416 -0.1960 -0.8155  0.3796
  790ACTN    H1 7898   5.120   2.882   6.358 -0.4876  0.4533  2.1707
  790ACTN    H2 7899   5.260   2.778   6.351  2.0094  2.5002  1.2450
  790ACTN    H3 7900   5.225   2.873   6.494 -3.6527  0.7979  1.2359
  791ACTN    H6 7901   1.519   5.962   4.543 -0.7677  0.3776  0.2423
  791ACTN    C3 7902   1.552   5.889   4.469 -1.1810  0.1199  0.3102
  791ACTN    H4 7903   1.496   5.903   4.376  0.7850 -2.9209 -1.4129
  791ACTN    H5 7904   1.656   5.915   4.446 -1.6376  0.8230 -1.0071
  791ACTN    C2 7905   1.531   5.757   4.532 -0.3372  0.4875 -0.2201
  791ACTN    O1 7906   1.415   5.717   4.532 -0.5296 -0.5783 -0.1149
  791ACTN    C1 7907   1.636   5.667   4.590 -0.3701  0.2285  0.4558
  791ACTN    H1 7908   1.587   5.574   4.622  0.0345  0.3398  1.4166
  791ACTN    H2 7909   1.681   5.705   4.682  0.5767 -0.0152  0.0922
  791ACTN    H3 7910   1.715   5.650   4.518  1.3905 -2.0474  2.8274
  792ACTN    H6 7911   1.929   2.423   4.950 -1.5107 -1.4206  0.8937
  792ACTN    C3 7912   1.982   2.333   4.920 -0.2387 -0.3807 -0.0401
  792ACTN    H4 7913   2.085   2.326   4.957  0.2198 -2.8199 -1.6442
  792ACTN    H5 7914   1.996   2.331   4.812  0.8617  1.9493  0.0448
  792ACTN    C2 7915   1.896   2.217   4.964  0.1771 -0.2380  0.0350
  792ACTN    O1 7916   1.773   2.213   4.950 -0.3213  0.4217 -0.2044
  792ACTN    C1 7917   1.965   2.120   5.048 -0.7707 -0.5328  0.6871
  792ACTN    H1 7918   2.013   2.054   4.976  1.6993  0.8504  1.0067
  792ACTN    H2 7919   1.892   2.059   5.102 -0.4083  0.5554  2.4402
  792ACTN    H3 7920   2.033   2.173   5.115 -0.6119  1.4382 -1.0070
  793ACTN    H6 7921   0.775   4.399   1.235 -0.4013  0.6773 -0.6482
  793ACTN    C3 7922   0.786   4.479   1.308 -0.6447 -0.0507  0.1918
  793ACTN    H4 7923   0.889   4.478   1.345 -0.1628 -0.1538 -1.1368
  793ACTN    H5 7924   0.760   4.570   1.255 -2.3941 -0.1790  0.8042
  793ACTN    C2 7925   0.700   4.454   1.423 -0.4852  0.2553 -0.0819
  793ACTN    O1 7926   0.725   4.360   1.495  0.1682  0.3446  0.2114
  793ACTN    C1 7927   0.599   4.553   1.462 -0.3352 -0.0026 -0.2885
  793ACTN    H1 7928   0.506   4.497   1.452  0.0666 -0.5850 -0.8185
  793ACTN    H2 7929   0.603   4.640   1.396  0.5469  0.4468  0.3538
  793ACTN    H3 7930   0.607   4.576   1.568 -0.8669  0.8513 -0.4223
  794ACTN    H6 7931   0.567   0.167   2.360 -0.7386  1.7811  0.6967
  794ACTN    C3 7932   0.626   0.114   2.435 -0.3027  0.5073 -0.5396
  794ACTN    H4 7933   0.689   0.185   2.488  0.7505 -1.0711  0.3257
  794ACTN    H5 7934   0.551   0.075   2.504 -0.6822 -0.1950 -1.3357
  794ACTN    C2 7935   0.690  -0.006   2.386 -1.2471  0.1880  0.7127
  794ACTN    O1 7936   0.751  -0.079   2.460  0.9106  0.6901 -0.5799
  794ACTN    C1 7937   0.671  -0.039   2.245 -0.1162  0.8539  0.0648
  794ACTN    H1 7938   0.597   0.026   2.196 -0.2818  1.6738  1.3815
  794ACTN    H2 7939   0.646  -0.144   2.237  1.3222  0.4404  0.9457
  794ACTN    H3 7940   0.758  -0.025   2.182 -1.2169 -0.1309 -1.7108
  795ACTN    H6 7941   4.401   5.504   0.050 -0.6893  0.7008  1.1214
  795ACTN    C3 7942   4.426   5.406   0.092 -0.2319  0.3734  0.0993
  795ACTN    H4 7943   4.406   5.400   0.199 -0.7394 -0.7378 -0.0486
  795ACTN    H5 7944   4.361   5.341   0.034 -2.0003  2.7301 -0.6295
  795ACTN    C2 7945   4.572   5.387   0.069 -0.2577 -0.6498  0.5571
  795ACTN    O1 7946   4.657   5.432   0.147  0.0691 -0.2639 -0.4506
  795ACTN    C1 7947   4.608   5.275  -0.023 -0.7760 -0.1061 -0.4968
  795ACTN    H1 7948   4.715   5.279  -0.046 -0.7434 -0.0455 -0.3280
  795ACTN    H2 7949   4.560   5.277  -0.121  0.6236  0.4762 -1.1834
  795ACTN    H3 7950   4.596   5.177   0.024  1.7024 -0.8718 -1.3437
  796ACTN    H6 7951   5.388   5.804   3.656 -0.5841 -1.4710 -0.5191
  796ACTN    C3 7952   5.430   5.820   3.556  0.4982 -0.3888  0.1059
  796ACTN    H4 7953   5.395   5.740   3.491  0.6858 -1.1652  0.9398
  796ACTN    H5 7954   5.385   5.911   3.517 -0.9066  0.0377  2.5500
  796ACTN    C2 7955   5.577   5.835   3.543  0.1596 -0.5670 -0.3886
  796ACTN    O1 7956   5.648   5.808   3.636  0.9194  0.4477 -0.8651
  796ACTN    C1 7957   5.617   5.833   3.403  0.2368 -0.3906  0.4956
  796ACTN    H1 7958   5.576   5.742   3.359 -1.0394  0.5073 -0.2482
  796ACTN    H2 7959   5.723   5.849   3.387 -0.0831  0.5012 -0.8537
  796ACTN    H3 7960   5.567   5.918   3.355  2.1257  0.1875 -0.5080
  797ACTN    H6 7961   1.216   0.182   2.987 -0.8683 -0.2922  1.3243
  797ACTN    C3 7962   1.243   0.273   3.041 -0.2377  0.0085  0.5187
  797ACTN    H4 7963   1.163   0.346   3.039 -1.8429 -1.7051  0.3524
  797ACTN    H5 7964   1.259   0.240   3.144 -0.6065 -1.2752  0.1762
  797ACTN    C2 7965   1.371   0.330   2.987  0.4803  0.0330  0.1240
  797ACTN    O1 7966   1.366   0.446   2.936 -0.3898  0.1436  0.4720
  797ACTN    C1 7967   1.468   0.223   2.939  0.0885  0.3735 -0.1248
  797ACTN    H1 7968   1.506   0.176   3.030  0.5917 -3.4274 -2.1956
  797ACTN    H2 7969   1.556   0.258   2.886  2.4119 -1.3559  2.4241
  797ACTN    H3 7970   1.419   0.144   2.882  0.4784 -2.0265  2.7139
  798ACTN    H6 7971   1.744   6.699   6.606 -0.7145  0.3853 -2.1172
  798ACTN    C3 7972   1.852   6.701   6.598 -0.5707  0.2102 -0.3133
  798ACTN    H4 7973   1.872   6.808   6.587 -1.0798  0.3378  0.0067
  798ACTN    H5 7974   1.901   6.672   6.692  1.2470  0.5241 -1.1376
  798ACTN    C2 7975   1.899   6.613   6.485  0.5391  0.2060 -0.6993
  798ACTN    O1 7976   1.819   6.569   6.401  0.2480  0.2933  0.3095
  798ACTN    C1 7977   2.034   6.562   6.500 -0.0117  0.5382 -0.0252
  798ACTN    H1 7978   2.054   6.559   6.607 -0.6111  0.2204  0.0793
  798ACTN    H2 7979   2.114   6.619   6.452  0.2541  0.5904  0.4834
  798ACTN    H3 7980   2.035   6.460   6.461 -2.7086  0.2240  0.6088
  799ACTN    H6 7981   6.718   6.080   5.560 -0.8680  0.7585  2.4118
  799ACTN    C3 7982   6.645   6.003   5.581 -0.1995 -0.6465 -0.1935
  799ACTN    H4 7983   6.661   5.921   5.510  0.4013 -1.0498  0.4004
  799ACTN    H5 7984   6.656   5.969   5.684  1.0812  0.5479  0.0725
  799ACTN    C2 7985   6.506   6.058   5.562 -0.6910 -0.2183  0.1187
  799ACTN    O1 7986   6.439   6.011   5.469  0.2827  0.2645 -0.0612
  799ACTN    C1 7987   6.449   6.149   5.668  0.0395 -0.6440 -0.7611
  799ACTN    H1 7988   6.352   6.192   5.643  0.9512  3.5825  2.3198
  799ACTN    H2 7989   6.515   6.231   5.696 -2.0158  1.1769 -1.0840
  799ACTN    H3 7990   6.451   6.089   5.759  0.8375  0.7381  0.1569
  800ACTN    H6 7991   1.110   2.723   4.420 -0.8463  0.4911 -1.2932
  800ACTN    C3 7992   1.204   2.765   4.384 -0.0022 -0.1365  0.1147
  800ACTN    H4 7993   1.222   2.738   4.280  0.8753  3.1012 -0.6369
  800ACTN    H5 7994   1.200   2.874   4.387 -0.0369 -0.0363 -2.3441
  800ACTN    C2 7995   1.321   2.714   4.462 -0.5902  0.0703 -0.1336
  800ACTN    O1 7996   1.352   2.764   4.567 -0.7920 -0.3132  0.1489
  800ACTN    C1 7997   1.406   2.599   4.417  0.6445 -0.2118  0.3663
  800ACTN    H1 7998   1.411   2.514   4.485  0.7488 -1.5757 -1.3037
  800ACTN    H2 7999   1.509   2.630   4.401  1.0035 -2.2401 -1.4557
  800ACTN    H3 8000   1.381   2.564   4.317  1.4860 -0.1078  0.1105
  801ACTN    H6 8001   0.000   5.073   4.276  0.8270  0.8581  1.3025
  801ACTN    C3 8002  -0.042   5.013   4.356  0.7887 -0.0849  0.5844
  801ACTN    H4 8003   0.001   5.046   4.450  0.0333 -0.2294  0.9861
  801ACTN    H5 8004  -0.150   5.025   4.359  0.9790  1.4021  3.8075
  801ACTN    C2 8005   0.005   4.868   4.329  0.9096 -0.3521  0.0486
  801ACTN    O1 8006  -0.018   4.787   4.417 -0.3532  0.0753  0.1223
  801ACTN    C1 8007   0.090   4.843   4.215 -0.8560 -0.2541 -0.4572
  801ACTN    H1 8008   0.036   4.824   4.122  0.7760 -0.7837 -1.3257
  801ACTN    H2 8009   0.146   4.750   4.224  1.1278  0.9350  0.0300
  801ACTN    H3 8010   0.166   4.918   4.192  0.7976 -1.9389 -0.6676
  802ACTN    H6 8011   0.452   3.163   0.979 -0.4537 -0.2061  0.3143
  802ACTN    C3 8012   0.468   3.124   1.080  0.5154  0.2593  0.3460
  802ACTN    H4 8013   0.465   3.016   1.092 -0.5353  0.5986  3.8145
  802ACTN    H5 8014   0.569   3.149   1.113  0.0250  0.6032  1.6180
  802ACTN    C2 8015   0.376   3.188   1.177  0.1059  0.4502  0.0240
  802ACTN    O1 8016   0.314   3.283   1.143 -0.6420 -0.2920  0.4579
  802ACTN    C1 8017   0.386   3.164   1.327  0.3034  0.5556 -0.2648
  802ACTN    H1 8018   0.404   3.058   1.342  1.3412  0.6411 -0.8492
  802ACTN    H2 8019   0.289   3.182   1.373 -0.1135 -0.4904 -0.7224
  802ACTN    H3 8020   0.459   3.230   1.374  0.2684 -0.7452  1.6933
  803ACTN    H6 8021   3.049   4.487   6.377  0.1940 -0.1875 -0.3964
  803ACTN    C3 8022   3.037   4.404   6.308  1.6602 -0.4619 -0.3393
  803ACTN    H4 8023   3.137   4.369   6.283  1.8159  0.5372 -1.1224
  803ACTN    H5 8024   2.980   4.326   6.359  0.5750  0.8972  0.5417
  803ACTN    C2 8025   2.981   4.457   6.182  0.9295  0.3564 -0.2109
  803ACTN    O1 8026   2.888   4.392   6.129  0.0762 -0.2868  0.3464
  803ACTN    C1 8027   3.057   4.565   6.109  0.2516  0.1117  0.1314
  803ACTN    H1 8028   3.108   4.519   6.024 -0.0422 -0.1753  0.1093
  803ACTN    H2 8029   3.115   4.634   6.170 -2.7110  1.2189  1.7918
  803ACTN    H3 8030   2.994   4.639   6.059  0.3309  1.0896  1.4624
  804ACTN    H6 8031   1.093   1.866   4.774  0.5181  0.6719  0.8707
  804ACTN    C3 8032   1.134   1.942   4.708  0.2051 -0.6073 -0.8567
  804ACTN    H4 8033   1.057   1.992   4.649  0.0554  0.1496 -0.0286
  804ACTN    H5 8034   1.174   2.023   4.769 -0.0022  0.3952 -2.0279
  804ACTN    C2 8035   1.234   1.883   4.617  0.5103  0.1164 -0.0944
  804ACTN    O1 8036   1.308   1.959   4.553  0.8124 -0.1598  0.0421
  804ACTN    C1 8037   1.263   1.736   4.618 -0.0459  0.2742 -0.7802
  804ACTN    H1 8038   1.218   1.681   4.701 -0.2153 -0.3459 -1.2829
  804ACTN    H2 8039   1.371   1.721   4.613  0.0529  0.3402  0.8486
  804ACTN    H3 8040   1.222   1.701   4.524  0.9747  3.8273 -2.6335
  805ACTN    H6 8041   0.479   1.720   1.203  2.2351 -0.7396 -0.1793
  805ACTN    C3 8042   0.509   1.807   1.261  0.3640 -0.0184 -0.2430
  805ACTN    H4 8043   0.502   1.768   1.363 -0.3210  0.9854  0.1106
  805ACTN    H5 8044   0.612   1.836   1.239  1.0355 -1.3929  1.0293
  805ACTN    C2 8045   0.418   1.930   1.264  0.1968 -0.8615 -0.0449
  805ACTN    O1 8046   0.299   1.923   1.260  0.4731  0.0171  0.1506
  805ACTN    C1 8047   0.484   2.062   1.241 -0.1082  0.8431  0.2539
  805ACTN    H1 8048   0.435   2.126   1.167  1.5550  0.7080 -1.0109
  805ACTN    H2 8049   0.578   2.045   1.188  0.1482  0.1881  0.9021
  805ACTN    H3 8050   0.501   2.100   1.342  2.2113 -1.1616  0.6715
  806ACTN    H6 8051   3.182   3.479   5.329  3.8750 -0.2717 -2.5099
  806ACTN    C3 8052   3.115   3.481   5.242  0.3819 -0.0468  0.0708
  806ACTN    H4 8053   3.138   3.571   5.185  0.0568  0.4588  0.7244
  806ACTN    H5 8054   3.132   3.395   5.178  0.8725  1.5909 -2.0575
  806ACTN    C2 8055   2.972   3.487   5.283  0.6004 -0.6160 -0.8028
  806ACTN    O1 8056   2.919   3.393   5.343  0.1255  0.0768  0.1534
  806ACTN    C1 8057   2.903   3.608   5.232 -0.0806  0.2222  0.2279
  806ACTN    H1 8058   2.807   3.626   5.281  0.0928  0.0299  0.6403
  806ACTN    H2 8059   2.896   3.596   5.124  1.4267 -1.0475  0.2614
  806ACTN    H3 8060   2.963   3.696   5.255 -1.1927  1.2564 -0.7497
  807ACTN    H6 8061   5.204   3.168   1.556 -0.1045 -0.2979  1.1893
  807ACTN    C3 8062   5.275   3.247   1.529  0.0713 -0.6595  0.5943
  807ACTN    H4 8063   5.283   3.321   1.608 -0.2115 -0.6391  0.6036
  807ACTN    H5 8064   5.237   3.303   1.443 -0.5748 -0.9702  0.6701
  807ACTN    C2 8065   5.406   3.173   1.514 -1.0283 -0.0054  0.3622
  807ACTN    O1 8066   5.441   3.139   1.400  1.1344  0.1583  1.0587
  807ACTN    C1 8067   5.502   3.202   1.621  0.4955  0.2926 -0.2144
  807ACTN    H1 8068   5.568   3.116   1.622  0.4225  0.2305  2.0326
  807ACTN    H2 8069   5.454   3.199   1.719 -0.6863 -0.4959 -0.7973
  807ACTN    H3 8070   5.559   3.292   1.601 -0.1399  0.1682 -2.7152
  808ACTN    H6 8071   2.270   0.494   4.985 -1.1905 -0.3258  2.2635
  808ACTN    C3 8072   2.373   0.474   5.014 -0.3042  0.0594 -0.4865
  808ACTN    H4 8073   2.432   0.488   4.923 -0.2970 -0.4934 -0.5688
  808ACTN    H5 8074   2.411   0.536   5.096  0.2850  2.5873 -2.5871
  808ACTN    C2 8075   2.392   0.332   5.057  0.5153  0.2112  0.0931
  808ACTN    O1 8076   2.321   0.248   4.997  0.0142 -0.4816  0.5682
  808ACTN    C1 8077   2.513   0.286   5.126 -0.4862  0.1550  0.1515
  808ACTN    H1 8078   2.557   0.360   5.192 -0.8768  0.7125 -0.2148
  808ACTN    H2 8079   2.581   0.265   5.044 -2.2478 -2.8119 -0.6477
  808ACTN    H3 8080   2.485   0.189   5.167 -1.4318 -0.8450 -2.7623
  809ACTN    H6 8081   0.942   3.418   4.683  0.8778  1.1119  2.6903
  809ACTN    C3 8082   0.918   3.317   4.714 -0.3066  0.5579  0.1252
  809ACTN    H4 8083   0.938   3.245   4.635  0.8782  0.2109  0.7257
  809ACTN    H5 8084   0.997   3.288   4.784  0.4027  0.0803 -0.8666
  809ACTN    C2 8085   0.788   3.311   4.781 -0.4867 -0.1794 -0.0116
  809ACTN    O1 8086   0.781   3.369   4.886  0.3724  0.3709 -0.5937
  809ACTN    C1 8087   0.685   3.219   4.726 -0.6871  0.1690 -0.8290
  809ACTN    H1 8088   0.699   3.121   4.770 -1.7678 -0.1148 -1.1135
  809ACTN    H2 8089   0.696   3.213   4.617 -3.4524 -0.9560 -1.0781
  809ACTN    H3 8090   0.586   3.259   4.750  0.5479  2.2261  1.0272
  810ACTN    H6 8091   1.333   6.335   1.836  0.9115 -1.1505  0.4618
  810ACTN    C3 8092   1.351   6.267   1.753 -0.5388  0.1149 -0.9427
  810ACTN    H4 8093   1.347   6.323   1.660  0.7474  0.9116 -0.5372
  810ACTN    H5 8094   1.455   6.233   1.758  0.1034  2.3852  2.6078
  810ACTN    C2 8095   1.251   6.162   1.751  0.2839  0.9255 -0.0988
  810ACTN    O1 8096   1.197   6.130   1.859  0.2828  0.1612 -0.1682
  810ACTN    C1 8097   1.221   6.085   1.620 -0.4026 -0.1917  0.5979
  810ACTN    H1 8098   1.297   6.119   1.550 -0.9207 -0.4259 -0.0847
  810ACTN    H2 8099   1.126   6.103   1.571 -0.5354 -1.9700  0.1388
  810ACTN    H3 8100   1.237   5.978   1.638  0.5223  0.3132  3.0140
  811ACTN    H6 8101   0.719   7.008   3.119  3.2444 -1.2011  1.6062
  811ACTN    C3 8102   0.679   7.052   3.210  0.6466  0.1887 -0.1497
  811ACTN    H4 8103   0.573   7.031   3.223  0.4613  0.9734 -0.3521
  811ACTN    H5 8104   0.734   7.008   3.293 -0.1951 -0.5485  0.0251
  811ACTN    C2 8105   0.700   7.200   3.200 -0.9416  0.1236  0.5545
  811ACTN    O1 8106   0.809   7.246   3.237  0.2311 -0.0413  0.2616
  811ACTN    C1 8107   0.622   7.280   3.111 -0.1666 -0.0692 -1.0113
  811ACTN    H1 8108   0.700   7.323   3.048  0.4931  1.6430  0.8916
  811ACTN    H2 8109   0.572   7.362   3.163  0.1813 -0.5742  0.1497
  811ACTN    H3 8110   0.554   7.233   3.040 -0.1050  1.4707 -2.1130
  812ACTN    H6 8111   3.985   4.375   1.932  0.9420  1.1134 -0.0326
  812ACTN    C3 8112   3.938   4.466   1.969 -0.9037  0.4362 -0.6386
  812ACTN    H4 8113   3.850   4.436   2.025 -0.6781 -1.4145 -1.2284
  812ACTN    H5 8114   4.003   4.513   2.043 -1.0506 -0.5596  0.1401
  812ACTN    C2 8115   3.916   4.552   1.853  0.0395  0.0153  0.3852
  812ACTN    O1 8116   3.880   4.668   1.870  0.4606  0.3886 -0.3416
  812ACTN    C1 8117   3.889   4.483   1.724 -0.0627  0.2052  0.1251
  812ACTN    H1 8118   3.783   4.458   1.723 -0.3757  1.4965  0.1564
  812ACTN    H2 8119   3.957   4.398   1.721 -1.7552 -1.1606 -0.4241
  812ACTN    H3 8120   3.916   4.553   1.644  0.0498  1.4033  1.1939
  813ACTN    H6 8121   1.523   2.115   2.584 -0.1026 -0.6131  0.4039
  813ACTN    C3 8122   1.592   2.113   2.499 -0.2570  0.0879  0.2588
  813ACTN    H4 8123   1.569   2.202   2.440 -0.1987  1.0384  1.6627
  813ACTN    H5 8124   1.692   2.115   2.541 -0.8083  1.2181  1.5667
  813ACTN    C2 8125   1.574   1.993   2.415  0.0898  0.6053  0.3077
  813ACTN    O1 8126   1.517   1.898   2.458  0.0025 -0.6546  0.7300
  813ACTN    C1 8127   1.670   1.977   2.298 -0.1175  0.1178 -0.5185
  813ACTN    H1 8128   1.725   2.067   2.270  0.7252  0.5729  2.4094
  813ACTN    H2 8129   1.613   1.949   2.209  1.3237 -1.9708 -0.8136
  813ACTN    H3 8130   1.735   1.895   2.327 -1.7827 -0.7962  0.7670
  814ACTN    H6 8131   3.097   4.132   6.642 -0.8703  1.3834 -0.0794
  814ACTN    C3 8132   3.000   4.106   6.684 -0.4249  0.5114  0.4183
  814ACTN    H4 8133   2.998   3.997   6.692 -2.7206  0.4485 -0.5472
  814ACTN    H5 8134   2.971   4.148   6.781  0.3037 -2.6316  2.0707
  814ACTN    C2 8135   2.895   4.136   6.580 -1.2312 -0.2174 -0.8112
  814ACTN    O1 8136   2.903   4.083   6.469 -0.3904  0.0924 -0.3407
  814ACTN    C1 8137   2.793   4.237   6.625 -0.2537 -0.1508  0.7990
  814ACTN    H1 8138   2.811   4.331   6.572 -0.2329 -0.3865  0.3959
  814ACTN    H2 8139   2.795   4.254   6.733  0.6405  2.3180  0.4224
  814ACTN    H3 8140   2.696   4.195   6.598 -0.9684  2.3008 -0.7033
  815ACTN    H6 8141   4.903   3.125   6.987  2.2414  4.8312 -2.6573
  815ACTN    C3 8142   4.806   3.119   6.938  0.4740  0.4317  1.0575
  815ACTN    H4 8143   4.813   3.107   6.830 -1.1727 -0.2224  1.0062
  815ACTN    H5 8144   4.751   3.032   6.976 -0.9462  1.9334  2.5240
  815ACTN    C2 8145   4.740   3.252   6.964  0.5403 -0.2583 -0.2039
  815ACTN    O1 8146   4.695   3.324   6.873 -0.1679  0.4326  0.2261
  815ACTN    C1 8147   4.706   3.301   7.101  0.2706 -0.1491  0.4875
  815ACTN    H1 8148   4.600   3.319   7.116  0.5089 -1.3985  3.9975
  815ACTN    H2 8149   4.760   3.392   7.127  1.1095 -0.2065 -0.9772
  815ACTN    H3 8150   4.732   3.231   7.180  0.2903  1.7109  2.1390
  816ACTN    H6 8151   6.037   1.251   3.007 -0.0571 -1.1677 -0.1989
  816ACTN    C3 8152   6.049   1.189   3.096 -0.6540 -0.4465  0.3859
  816ACTN    H4 8153   5.950   1.163   3.134 -0.0859 -0.2853  2.0434
  816ACTN    H5 8154   6.076   1.258   3.176 -0.7350 -0.1441  0.1569
  816ACTN    C2 8155   6.146   1.078   3.064  0.1105  0.0451  0.8151
  816ACTN    O1 8156   6.256   1.101   3.022  0.2630  1.2046 -0.0419
  816ACTN    C1 8157   6.100   0.934   3.081  0.4356 -0.2956  0.4507
  816ACTN    H1 8158   6.058   0.912   3.179 -0.9485 -0.2620 -0.1251
  816ACTN    H2 8159   6.180   0.863   3.057 -0.7716 -2.1210  1.6223
  816ACTN    H3 8160   6.028   0.910   3.003 -0.0057  0.4753  0.6183
  817ACTN    H6 8161   5.001   1.604   0.644 -3.7155  0.3260 -0.5216
  817ACTN    C3 8162   5.032   1.705   0.670 -0.7197 -0.5952 -0.2579
  817ACTN    H4 8163   4.937   1.759   0.668 -0.9449 -0.9450  0.6516
  817ACTN    H5 8164   5.080   1.709   0.768 -0.1503  2.1063 -0.6151
  817ACTN    C2 8165   5.126   1.753   0.565 -0.0776  0.4540 -0.1982
  817ACTN    O1 8166   5.240   1.783   0.590 -0.5682  0.9968 -0.2970
  817ACTN    C1 8167   5.087   1.733   0.422  0.3696  0.3707 -0.7549
  817ACTN    H1 8168   5.073   1.626   0.404 -1.5675  0.3166  0.9136
  817ACTN    H2 8169   5.169   1.776   0.365 -0.2857  1.4211 -0.9179
  817ACTN    H3 8170   4.995   1.788   0.402  0.2258  0.0550 -0.9592
  818ACTN    H6 8171   7.087   6.728   6.332 -1.9854  1.8562 -1.0258
  818ACTN    C3 8172   7.014   6.649   6.354  0.2705 -0.0380 -0.1089
  818ACTN    H4 8173   7.061   6.567   6.408  1.8084  0.8749 -0.0114
  818ACTN    H5 8174   6.934   6.696   6.410 -0.1048  0.8820 -1.3910
  818ACTN    C2 8175   6.952   6.604   6.223 -0.7688 -0.5968 -0.3932
  818ACTN    O1 8176   7.003   6.652   6.124  0.1013  0.1679  0.3867
  818ACTN    C1 8177   6.835   6.516   6.217 -0.2559 -0.8931  0.4317
  818ACTN    H1 8178   6.857   6.425   6.272 -0.0840 -1.0723  0.0701
  818ACTN    H2 8179   6.803   6.507   6.113  0.9908 -1.0682  0.0635
  818ACTN    H3 8180   6.750   6.566   6.264 -0.2321 -2.3773  2.0813
  819ACTN    H6 8181   4.891   2.572   0.096  1.5760 -0.0699  0.5312
  819ACTN    C3 8182   4.916   2.674   0.127  0.2051  0.5049 -0.2244
  819ACTN    H4 8183   5.023   2.673   0.146  0.2051 -1.8785 -0.2544
  819ACTN    H5 8184   4.888   2.746   0.050 -0.9538  0.2768 -0.0321
  819ACTN    C2 8185   4.854   2.706   0.258  0.9382  0.0486 -0.2496
  819ACTN    O1 8186   4.804   2.815   0.286  0.3935 -0.1685 -0.3539
  819ACTN    C1 8187   4.865   2.604   0.371  0.3275  0.7770  0.4779
  819ACTN    H1 8188   4.818   2.508   0.350  0.6020  0.4718  1.2477
  819ACTN    H2 8189   4.819   2.635   0.464  1.2772 -0.9690  1.5570
  819ACTN    H3 8190   4.970   2.578   0.385  0.4687  1.6426  1.0713
  820ACTN    H6 8191   0.243   1.099   4.612  0.7598  0.9074 -1.5036
  820ACTN    C3 8192   0.247   1.009   4.550 -1.0850 -0.2344 -0.0231
  820ACTN    H4 8193   0.144   0.986   4.524 -1.0549  2.1301 -2.3377
  820ACTN    H5 8194   0.284   0.930   4.616 -2.1097  1.1533  2.2536
  820ACTN    C2 8195   0.333   1.035   4.436 -0.1591  0.4773 -0.0701
  820ACTN    O1 8196   0.347   1.152   4.409 -0.2215  0.3255 -0.6296
  820ACTN    C1 8197   0.386   0.922   4.360 -0.3241 -0.2454 -0.0833
  820ACTN    H1 8198   0.459   0.959   4.288  1.2707  1.0657  2.1047
  820ACTN    H2 8199   0.303   0.876   4.307 -0.3454 -0.5724  0.2362
  820ACTN    H3 8200   0.440   0.853   4.424 -0.2495  0.4751  0.6495
  821ACTN    H6 8201   6.795   3.032   2.351  0.6830  0.4465  0.4992
  821ACTN    C3 8202   6.794   2.958   2.431 -0.1209 -0.3930 -0.2849
  821ACTN    H4 8203   6.814   2.862   2.383  0.9995  0.6501 -1.9291
  821ACTN    H5 8204   6.876   2.972   2.501 -0.5684  0.5211  0.0678
  821ACTN    C2 8205   6.665   2.952   2.506 -0.1977 -0.2658 -0.4242
  821ACTN    O1 8206   6.603   3.057   2.516  0.2380 -0.3489  0.5878
  821ACTN    C1 8207   6.624   2.823   2.562  0.2919  0.3911 -0.2815
  821ACTN    H1 8208   6.517   2.802   2.567  0.6877 -1.6392 -0.0801
  821ACTN    H2 8209   6.653   2.822   2.667  1.6583 -1.1252 -0.6651
  821ACTN    H3 8210   6.670   2.730   2.530 -0.1221 -0.0057  0.2667
  822ACTN    H6 8211   6.186   3.892   1.074  2.2040 -0.5184  0.1376
  822ACTN    C3 8212   6.196   3.997   1.100  0.5397 -0.4783  0.6788
  822ACTN    H4 8213   6.303   4.015   1.113  0.8820 -0.2770 -2.0388
  822ACTN    H5 8214   6.169   4.043   1.005 -0.9560  1.1054  1.8356
  822ACTN    C2 8215   6.097   4.034   1.203 -0.4191 -0.2684  0.2861
  822ACTN    O1 8216   6.001   4.107   1.175  0.3898  0.4440 -0.0580
  822ACTN    C1 8217   6.113   3.965   1.342  0.2307  0.0869 -0.2899
  822ACTN    H1 8218   6.052   4.018   1.415  0.3461  0.0456 -0.1641
  822ACTN    H2 8219   6.213   3.973   1.384 -0.3921  1.0451  1.0672
  822ACTN    H3 8220   6.086   3.860   1.339 -0.1965  0.1708  0.5035
  823ACTN    H6 8221   6.393   4.341   3.131 -0.6316 -0.2823  0.7426
  823ACTN    C3 8222   6.420   4.275   3.214  0.1586 -0.4710  0.3411
  823ACTN    H4 8223   6.354   4.299   3.298  0.0823 -0.6319  0.3267
  823ACTN    H5 8224   6.415   4.170   3.187 -1.5393 -0.1413 -0.7079
  823ACTN    C2 8225   6.564   4.305   3.266 -0.1337  0.2204 -0.2583
  823ACTN    O1 8226   6.602   4.287   3.379 -0.0186 -0.3186  0.3418
  823ACTN    C1 8227   6.648   4.391   3.183 -0.5049 -0.1071 -0.0902
  823ACTN    H1 8228   6.584   4.459   3.126  1.2616 -0.2666 -2.3311
  823ACTN    H2 8229   6.707   4.331   3.114  0.4967  1.0280 -0.2367
  823ACTN    H3 8230   6.720   4.449   3.240 -0.9454 -0.1219  0.4839
  824ACTN    H6 8231   6.362   1.755   7.030 -0.3094 -0.7514 -0.8543
  824ACTN    C3 8232   6.338   1.730   6.926 -0.3221 -0.1845 -0.9910
  824ACTN    H4 8233   6.431   1.716   6.871  1.2131 -0.2925  1.5200
  824ACTN    H5 8234   6.285   1.634   6.927  0.9879 -0.9348  0.8302
  824ACTN    C2 8235   6.245   1.827   6.851 -0.8117  0.5793  0.1342
  824ACTN    O1 8236   6.285   1.873   6.745 -0.8833 -0.0621 -0.5549
  824ACTN    C1 8237   6.103   1.855   6.889  0.8785 -0.1288 -0.4598
  824ACTN    H1 8238   6.083   1.961   6.875  1.1810  0.1555  1.1985
  824ACTN    H2 8239   6.085   1.823   6.992 -0.0161 -1.7211 -1.0879
  824ACTN    H3 8240   6.031   1.805   6.824 -1.0808 -0.3173  1.7786
  825ACTN    H6 8241   3.940   4.033   6.192  0.0358 -0.0866 -0.1416
  825ACTN    C3 8242   3.980   3.941   6.149  0.8842  0.4528 -0.4966
  825ACTN    H4 8243   3.928   3.864   6.205  1.1222 -0.3893 -1.4235
  825ACTN    H5 8244   3.949   3.928   6.045  0.9220 -0.1029 -0.4393
  825ACTN    C2 8245   4.132   3.956   6.164  0.4046  0.8802  0.2657
  825ACTN    O1 8246   4.204   3.944   6.065 -0.0454 -0.3725  0.2172
  825ACTN    C1 8247   4.188   3.990   6.295 -0.1131  0.0674 -0.5630
  825ACTN    H1 8248   4.238   4.087   6.287 -0.1206  0.2693  1.4975
  825ACTN    H2 8249   4.252   3.909   6.331 -1.3729 -0.3120  0.8745
  825ACTN    H3 8250   4.104   4.002   6.363  0.1987 -1.9351  0.2073
  826ACTN    H6 8251   1.195   5.393   3.342  0.0568 -1.3569  1.2107
  826ACTN    C3 8252   1.286   5.334   3.343  0.8569 -0.2102 -0.7938
  826ACTN    H4 8253   1.278   5.261   3.424  2.5916 -0.6359 -0.9868
  826ACTN    H5 8254   1.282   5.295   3.242 -2.4050 -2.4234  0.1029
  826ACTN    C2 8255   1.396   5.430   3.368 -0.7303 -0.4696  0.5560
  826ACTN    O1 8256   1.382   5.548   3.334 -0.4010 -0.2973  0.0993
  826ACTN    C1 8257   1.530   5.368   3.386  0.2816 -0.5369  0.2293
  826ACTN    H1 8258   1.515   5.261   3.372 -0.9998 -0.2935 -0.4075
  826ACTN    H2 8259   1.559   5.399   3.486  0.7737 -1.2690  0.3071
  826ACTN    H3 8260   1.607   5.397   3.315  1.4074 -3.9878 -0.0368
  827ACTN    H6 8261   3.415   0.972   4.185  0.7805 -0.0045  2.0704
  827ACTN    C3 8262   3.517   0.999   4.159  0.4227 -0.5730 -0.0461
  827ACTN    H4 8263   3.559   0.928   4.087  3.9888 -0.7397  2.0739
  827ACTN    H5 8264   3.512   1.099   4.116 -0.3433  0.4279  2.3051
  827ACTN    C2 8265   3.613   1.007   4.273 -0.6428 -0.4993 -0.4030
  827ACTN    O1 8266   3.587   1.014   4.394  0.6645  0.1301 -0.2623
  827ACTN    C1 8267   3.757   1.025   4.245 -0.1770  0.0856 -1.0676
  827ACTN    H1 8268   3.785   1.127   4.272  1.6131 -0.3221 -1.3713
  827ACTN    H2 8269   3.774   1.021   4.138  0.6598  1.2551 -0.9935
  827ACTN    H3 8270   3.817   0.949   4.294 -0.8597  0.3597  0.2397
  828ACTN    H6 8271   1.924   5.438   0.907 -0.5378  0.5140  3.6269
  828ACTN    C3 8272   2.002   5.514   0.902 -0.0071 -0.1448 -0.2321
  828ACTN    H4 8273   2.061   5.486   0.815 -0.5759 -0.5605 -0.4915
  828ACTN    H5 8274   1.948   5.604   0.876  1.4919  1.1008  0.8982
  828ACTN    C2 8275   2.087   5.535   1.028  0.2407  0.3674 -0.9174
  828ACTN    O1 8276   2.032   5.550   1.135 -1.3422 -0.4211  0.3250
  828ACTN    C1 8277   2.232   5.498   1.024 -0.5281 -0.3403  0.3484
  828ACTN    H1 8278   2.251   5.418   1.096  1.1835 -0.4712 -0.2203
  828ACTN    H2 8279   2.295   5.578   1.063  0.5956 -1.4073  0.7664
  828ACTN    H3 8280   2.272   5.465   0.929 -1.2864 -0.0603 -0.0711
  829ACTN    H6 8281   5.178   1.542   6.645 -0.3463  0.4048  0.6773
  829ACTN    C3 8282   5.192   1.645   6.613  0.3403  0.1071  0.0050
  829ACTN    H4 8283   5.248   1.642   6.520 -1.2486  1.0117 -1.0006
  829ACTN    H5 8284   5.095   1.678   6.578 -0.1102  1.2724  2.2191
  829ACTN    C2 8285   5.265   1.729   6.710 -0.0785 -0.1703 -0.2608
  829ACTN    O1 8286   5.286   1.688   6.822 -0.3247  0.3631 -0.3212
  829ACTN    C1 8287   5.280   1.868   6.677  0.1408  0.2948  0.1291
  829ACTN    H1 8288   5.186   1.916   6.706 -0.1764  0.2807 -0.8489
  829ACTN    H2 8289   5.295   1.876   6.570  1.2280  0.6999  0.3057
  829ACTN    H3 8290   5.358   1.925   6.728  0.4292 -0.8800  1.0111
  830ACTN    H6 8291   2.946   0.673   6.949 -0.7548  0.1529 -2.0835
  830ACTN    C3 8292   3.033   0.708   6.893  0.8503 -0.0277  0.2150
  830ACTN    H4 8293   3.002   0.785   6.822 -0.4762 -0.3292  0.4549
  830ACTN    H5 8294   3.102   0.747   6.968 -0.0072  0.3331  0.8245
  830ACTN    C2 8295   3.107   0.608   6.818 -0.1816  0.8821 -0.9420
  830ACTN    O1 8296   3.224   0.581   6.844  0.6054  0.1286 -0.0682
  830ACTN    C1 8297   3.040   0.530   6.714  0.6235 -0.3626  0.1550
  830ACTN    H1 8298   2.940   0.561   6.687  0.2411 -1.2308  0.5418
  830ACTN    H2 8299   3.040   0.426   6.747  1.2204 -0.1458  0.8715
  830ACTN    H3 8300   3.104   0.537   6.626  0.2725 -0.2652 -0.0896
  831ACTN    H6 8301   7.157   3.879   1.659  0.5501 -2.1737 -0.8787
  831ACTN    C3 8302   7.185   3.921   1.562 -0.1943 -0.3098 -0.3010
  831ACTN    H4 8303   7.218   3.837   1.502  1.7360  1.2856 -1.5367
  831ACTN    H5 8304   7.101   3.961   1.505 -0.0888  1.6517  0.8631
  831ACTN    C2 8305   7.304   4.010   1.584  0.5924 -0.0210 -0.0096
  831ACTN    O1 8306   7.292   4.103   1.665  0.0891 -0.6904  0.9127
  831ACTN    C1 8307   7.434   3.992   1.520  0.1834  0.0744 -0.4870
  831ACTN    H1 8308   7.514   4.052   1.563 -0.9014 -0.5730  2.5216
  831ACTN    H2 8309   7.424   4.024   1.416  2.0964 -0.2635 -0.8055
  831ACTN    H3 8310   7.463   3.887   1.530 -1.6116 -0.5819 -1.9322
  832ACTN    H6 8311   5.359   1.729   6.063 -0.6094  0.3611  1.6699
  832ACTN    C3 8312   5.295   1.648   6.027  0.0372  0.7212 -0.3585
  832ACTN    H4 8313   5.216   1.616   6.095  0.3662  0.5438 -0.0557
  832ACTN    H5 8314   5.243   1.690   5.941 -0.5206  1.2613  0.2312
  832ACTN    C2 8315   5.379   1.536   5.987  0.2430 -0.4182 -0.5056
  832ACTN    O1 8316   5.410   1.459   6.075  0.8612  0.5002 -0.1830
  832ACTN    C1 8317   5.395   1.507   5.841  0.3103 -0.1294 -0.0281
  832ACTN    H1 8318   5.476   1.435   5.832  3.0378  2.7007  0.7432
  832ACTN    H2 8319   5.418   1.593   5.778 -2.3330  0.2816 -0.5051
  832ACTN    H3 8320   5.304   1.459   5.805 -0.1323  0.1115  0.7663
  833ACTN    H6 8321   3.820   2.811   0.990 -0.8988  0.2059 -0.7283
  833ACTN    C3 8322   3.841   2.826   0.884 -0.1432 -0.5883 -0.7027
  833ACTN    H4 8323   3.775   2.911   0.865  2.0078  1.4936  0.7816
  833ACTN    H5 8324   3.804   2.749   0.817  1.9200 -0.1916 -2.3280
  833ACTN    C2 8325   3.983   2.857   0.854  0.7876  0.5726 -0.2235
  833ACTN    O1 8326   4.004   2.923   0.752 -0.0903 -0.1773  0.4300
  833ACTN    C1 8327   4.081   2.852   0.967 -0.3630  0.2747 -0.6092
  833ACTN    H1 8328   4.044   2.919   1.044  0.2198 -1.6449  1.3959
  833ACTN    H2 8329   4.178   2.885   0.931  0.0045 -1.2465 -1.0632
  833ACTN    H3 8330   4.097   2.756   1.018 -0.0811  0.0797 -1.0610
  834ACTN    H6 8331   6.723   3.324   0.614 -0.3040 -0.5812 -0.7863
  834ACTN    C3 8332   6.759   3.253   0.540 -0.5941 -0.4735 -1.0314
  834ACTN    H4 8333   6.736   3.280   0.437 -0.3419  0.5832 -0.8214
  834ACTN    H5 8334   6.868   3.258   0.548 -0.8497  2.0946  1.6267
  834ACTN    C2 8335   6.675   3.131   0.563  0.4141  0.8130 -0.4740
  834ACTN    O1 8336   6.575   3.127   0.636 -0.0501  0.6064 -0.4743
  834ACTN    C1 8337   6.691   3.007   0.475 -0.1426 -0.0728  0.0456
  834ACTN    H1 8338   6.768   3.024   0.399  0.9316 -0.4723  1.0373
  834ACTN    H2 8339   6.602   2.972   0.423  0.0697 -0.4869 -0.0475
  834ACTN    H3 8340   6.728   2.922   0.533  2.3732  1.2719  0.5043
  835ACTN    H6 8341   3.468   1.607   3.457 -0.1606 -0.0140  0.4911
  835ACTN    C3 8342   3.377   1.661   3.431  0.2192  0.3414 -0.1006
  835ACTN    H4 8343   3.346   1.716   3.519 -3.2095  0.9771 -1.6243
  835ACTN    H5 8344   3.398   1.727   3.346 -1.0282 -0.2065 -0.8510
  835ACTN    C2 8345   3.268   1.562   3.398  0.1101 -0.7254  0.1811
  835ACTN    O1 8346   3.259   1.464   3.464  0.0783  0.2768 -0.2244
  835ACTN    C1 8347   3.166   1.591   3.302  0.1013  0.0412  0.9388
  835ACTN    H1 8348   3.162   1.516   3.223 -0.0119  1.1419 -0.0997
  835ACTN    H2 8349   3.184   1.688   3.256  2.8518 -0.9335 -0.1187
  835ACTN    H3 8350   3.070   1.589   3.355 -0.5712 -0.5301 -0.2666
  836ACTN    H6 8351   3.645   4.115   1.676 -2.4753  1.4933 -2.2292
  836ACTN    C3 8352   3.717   4.188   1.638  0.5260 -0.1139  0.0694
  836ACTN    H4 8353   3.664   4.283   1.641  0.2991 -0.1894 -1.0947
  836ACTN    H5 8354   3.802   4.193   1.706 -1.3936 -0.6254  2.5939
  836ACTN    C2 8355   3.749   4.154   1.497 -0.1849 -0.3153 -0.1978
  836ACTN    O1 8356   3.779   4.245   1.417  0.3152 -0.1415 -0.1961
  836ACTN    C1 8357   3.789   4.013   1.468  0.3062  0.0047  0.2558
  836ACTN    H1 8358   3.874   4.011   1.400  1.2122 -1.1382  1.3958
  836ACTN    H2 8359   3.702   3.964   1.423  1.1235 -0.8138 -0.4484
  836ACTN    H3 8360   3.822   3.970   1.563  3.0570 -0.3912 -0.8328
  837ACTN    H6 8361   2.223   0.455   2.527 -1.1183 -1.0695  0.6507
  837ACTN    C3 8362   2.185   0.462   2.425 -0.5208  0.0867  0.4982
  837ACTN    H4 8363   2.095   0.401   2.420 -0.3947 -0.0470 -0.0710
  837ACTN    H5 8364   2.146   0.564   2.416 -0.7845 -0.0698 -0.1427
  837ACTN    C2 8365   2.288   0.440   2.324  0.1083  0.8935  0.7790
  837ACTN    O1 8366   2.297   0.338   2.264 -0.5036  0.4031 -0.4310
  837ACTN    C1 8367   2.411   0.528   2.331  0.7280 -0.8216 -0.0919
  837ACTN    H1 8368   2.431   0.579   2.237 -0.7995  0.2159  0.1231
  837ACTN    H2 8369   2.495   0.462   2.354 -1.0124 -3.3227 -0.6889
  837ACTN    H3 8370   2.402   0.605   2.408 -1.6463  0.1679 -1.3001
  838ACTN    H6 8371   6.948   2.469   6.558 -0.3610 -2.3327 -0.2262
  838ACTN    C3 8372   6.943   2.436   6.662 -0.3687 -0.4188  0.3867
  838ACTN    H4 8373   6.939   2.523   6.728 -0.1850 -0.7168  0.7939
  838ACTN    H5 8374   6.848   2.384   6.666 -1.5591  1.6331 -0.1244
  838ACTN    C2 8375   7.051   2.342   6.699  0.0380 -0.2651  0.3577
  838ACTN    O1 8376   7.031   2.270   6.795 -0.2802  0.1812 -0.8037
  838ACTN    C1 8377   7.185   2.349   6.631  0.6481 -0.1955  0.2205
  838ACTN    H1 8378   7.215   2.252   6.593 -1.4476 -0.6064 -0.4545
  838ACTN    H2 8379   7.257   2.373   6.710  0.4667 -0.0993  0.3595
  838ACTN    H3 8380   7.192   2.411   6.542  1.3574 -2.2779 -1.2166
  839ACTN    H6 8381   4.891   2.143   7.198  0.5741  1.8043 -0.1534
  839ACTN    C3 8382   4.983   2.154   7.140  0.6559  0.3977 -0.3096
  839ACTN    H4 8383   5.044   2.064   7.151 -1.4972 -1.5269 -3.3692
  839ACTN    H5 8384   4.965   2.160   7.033  0.8797 -2.1197 -0.5331
  839ACTN    C2 8385   5.052   2.280   7.183 -0.0223  0.3380 -0.6919
  839ACTN    O1 8386   5.171   2.287   7.200 -0.6398 -0.2653  0.4583
  839ACTN    C1 8387   4.976   2.400   7.228  0.2505 -0.0507 -0.0882
  839ACTN    H1 8388   4.992   2.468   7.144 -1.8410 -1.0798 -1.3799
  839ACTN    H2 8389   5.011   2.440   7.323  0.3763  0.7188 -0.4506
  839ACTN    H3 8390   4.871   2.378   7.249  0.1113 -1.1888 -1.8562
  840ACTN    H6 8391   4.417   1.867   6.365 -1.3713 -0.4016 -2.2659
  840ACTN    C3 8392   4.363   1.961   6.378 -0.3662 -0.0957 -0.0527
  840ACTN    H4 8393   4.261   1.932   6.404 -0.1256 -0.8545  0.0743
  840ACTN    H5 8394   4.408   2.023   6.455  0.1971 -1.8556  1.0750
  840ACTN    C2 8395   4.347   2.044   6.249 -0.2766 -0.8183 -0.7847
  840ACTN    O1 8396   4.349   2.166   6.247  0.3071  0.3861 -0.4566
  840ACTN    C1 8397   4.340   1.973   6.114  0.5081 -0.4170 -0.5317
  840ACTN    H1 8398   4.236   1.976   6.081  0.0931  1.1332  0.8431
  840ACTN    H2 8399   4.375   1.870   6.118 -0.7552 -0.7889  2.2129
  840ACTN    H3 8400   4.401   2.019   6.036  1.1651 -0.9723 -0.3451
  841ACTN    H6 8401   7.262   1.299   6.593 -0.6583  0.3388 -1.7323
  841ACTN    C3 8402   7.153   1.299   6.581 -0.8205 -0.2688 -0.3240
  841ACTN    H4 8403   7.103   1.233   6.652 -0.8471  0.3919  0.2757
  841ACTN    H5 8404   7.121   1.402   6.596 -0.6276 -0.3628  0.7690
  841ACTN    C2 8405   7.112   1.257   6.446 -0.2118  0.1937 -0.4063
  841ACTN    O1 8406   7.076   1.341   6.368 -0.2863  0.0933 -0.1586
  841ACTN    C1 8407   7.139   1.116   6.389 -0.7280 -0.0999  0.8941
  841ACTN    H1 8408   7.206   1.072   6.461  0.9039 -1.1299 -1.1979
  841ACTN    H2 8409   7.188   1.117   6.291  0.0866  2.8736  1.2645
  841ACTN    H3 8410   7.050   1.053   6.387 -0.1829 -0.8486  0.1023
  842ACTN    H6 8411   4.735   2.451   2.393  0.2295  0.8861 -0.0868
  842ACTN    C3 8412   4.742   2.401   2.489  0.0399  0.4145 -0.3176
  842ACTN    H4 8413   4.741   2.477   2.567  2.0116 -1.6606  1.8277
  842ACTN    H5 8414   4.667   2.326   2.516  0.2651  0.1841 -0.3224
  842ACTN    C2 8415   4.883   2.339   2.505 -0.2757  0.1953 -0.2210
  842ACTN    O1 8416   4.936   2.350   2.612 -0.2206 -0.2357  0.2910
  842ACTN    C1 8417   4.963   2.295   2.386  0.5305 -0.0948  0.0046
  842ACTN    H1 8418   4.895   2.299   2.301  0.0628  0.1591  0.3918
  842ACTN    H2 8419   5.002   2.195   2.400 -0.3955 -0.6227 -1.0578
  842ACTN    H3 8420   5.044   2.367   2.371 -0.4058  0.6530 -1.5985
  843ACTN    H6 8421   3.322   0.526   5.799 -0.3920 -0.0264 -0.5304
  843ACTN    C3 8422   3.228   0.582   5.797 -0.3267  0.1194  0.1753
  843ACTN    H4 8423   3.248   0.686   5.820  4.0828  0.1754 -3.1709
  843ACTN    H5 8424   3.184   0.592   5.698 -0.6521 -0.0845  0.2985
  843ACTN    C2 8425   3.124   0.536   5.890 -0.2107  0.5492 -0.4201
  843ACTN    O1 8426   3.094   0.417   5.895 -0.3138 -0.1008 -0.2793
  843ACTN    C1 8427   3.080   0.633   5.994  0.3207 -0.2085 -0.2199
  843ACTN    H1 8428   2.999   0.589   6.052 -1.2929  2.3387 -0.4499
  843ACTN    H2 8429   3.039   0.725   5.951 -1.8259 -0.7221  0.6723
  843ACTN    H3 8430   3.163   0.670   6.054  2.1409 -0.9106 -2.2699
  844ACTN    H6 8431   3.064   2.946   3.206  0.3534 -1.8274 -0.1436
  844ACTN    C3 8432   3.030   2.963   3.104 -0.1369 -0.0962  0.2906
  844ACTN    H4 8433   2.944   3.028   3.089 -0.7775 -1.3997 -1.9845
  844ACTN    H5 8434   3.104   3.017   3.045  0.7341 -0.6657  0.8452
  844ACTN    C2 8435   3.012   2.837   3.017  0.7301  1.0756  0.4352
  844ACTN    O1 8436   2.979   2.730   3.069  0.2299 -0.2330  0.4692
  844ACTN    C1 8437   3.021   2.843   2.866 -0.5476  0.1416  0.8232
  844ACTN    H1 8438   2.979   2.758   2.811  0.4206 -0.0606  0.3744
  844ACTN    H2 8439   3.125   2.851   2.835 -0.5766  1.8838  1.1288
  844ACTN    H3 8440   2.973   2.933   2.830  3.8229  1.7605 -1.3376
  845ACTN    H6 8441   2.721   6.368   1.055  1.7822 -0.3139  2.6298
  845ACTN    C3 8442   2.676   6.454   1.104 -0.1352  0.3232 -0.1286
  845ACTN    H4 8443   2.740   6.542   1.103  0.2713  0.0282 -0.0836
  845ACTN    H5 8444   2.590   6.480   1.042  1.2591 -0.1579 -2.3097
  845ACTN    C2 8445   2.641   6.431   1.247 -0.2154 -0.6320 -0.1755
  845ACTN    O1 8446   2.561   6.346   1.280  1.0113  0.0327 -0.0117
  845ACTN    C1 8447   2.713   6.504   1.354  0.7271  0.0385 -0.0737
  845ACTN    H1 8448   2.818   6.481   1.339  0.1506 -2.5299 -0.2973
  845ACTN    H2 8449   2.688   6.489   1.459  0.1182  0.4541 -0.1516
  845ACTN    H3 8450   2.700   6.612   1.340  0.6670  0.0731  0.2484
  846ACTN    H6 8451   5.975   3.665   4.856  1.9025 -2.5845 -0.5319
  846ACTN    C3 8452   6.000   3.706   4.758 -0.0235 -0.1616 -0.0590
  846ACTN    H4 8453   6.040   3.623   4.699 -1.6371 -1.5553  0.7545
  846ACTN    H5 8454   5.912   3.742   4.704 -0.5403 -0.9994  0.2157
  846ACTN    C2 8455   6.104   3.817   4.770  0.5369  0.0171  0.4303
  846ACTN    O1 8456   6.157   3.858   4.670 -0.2916 -0.4464  0.4449
  846ACTN    C1 8457   6.178   3.848   4.896 -0.2587 -0.1080  0.8176
  846ACTN    H1 8458   6.287   3.857   4.892 -0.3375  0.6146 -0.0950
  846ACTN    H2 8459   6.149   3.768   4.964 -0.1810  0.6905  1.8002
  846ACTN    H3 8460   6.138   3.940   4.938  1.3386  0.6397  0.7630
  847ACTN    H6 8461   5.392   7.025   5.505 -0.8534 -1.4823  0.7954
  847ACTN    C3 8462   5.495   7.028   5.539 -0.4830  0.2553 -0.4445
  847ACTN    H4 8463   5.492   6.990   5.641 -0.0283 -0.3176 -0.6388
  847ACTN    H5 8464   5.544   6.958   5.471  0.2077 -2.1521  2.4329
  847ACTN    C2 8465   5.539   7.174   5.532  0.4531  0.4896  0.3304
  847ACTN    O1 8466   5.524   7.248   5.622 -0.5995 -0.1402 -0.1253
  847ACTN    C1 8467   5.626   7.213   5.424 -0.0990 -0.4955  0.7070
  847ACTN    H1 8468   5.601   7.310   5.382 -2.2424 -1.1764  0.3514
  847ACTN    H2 8469   5.621   7.144   5.339 -2.3735  0.5338 -0.0195
  847ACTN    H3 8470   5.727   7.203   5.463  0.0516  0.3054  0.5173
  848ACTN    H6 8471   1.779   5.685   1.865 -0.5193  1.3365  0.0447
  848ACTN    C3 8472   1.690   5.659   1.806 -0.6146  0.7022  0.4690
  848ACTN    H4 8473   1.708   5.693   1.704 -0.2066 -1.3382 -0.1554
  848ACTN    H5 8474   1.683   5.550   1.807 -2.5715  0.8023 -0.6313
  848ACTN    C2 8475   1.557   5.704   1.859 -0.4808  0.8300 -0.3875
  848ACTN    O1 8476   1.488   5.641   1.942 -0.5379  0.5746 -1.0001
  848ACTN    C1 8477   1.510   5.841   1.805 -0.0704 -0.8341  0.3133
  848ACTN    H1 8478   1.402   5.852   1.796 -0.0463 -1.3754 -0.6980
  848ACTN    H2 8479   1.552   5.878   1.711  1.2666  1.1289  1.6419
  848ACTN    H3 8480   1.535   5.915   1.881  1.1457 -0.1447 -0.7432
  849ACTN    H6 8481   7.346   6.529   4.962 -0.9405  1.0748 -0.4656
  849ACTN    C3 8482   7.300   6.464   4.888  0.2385  0.4398 -0.6421
  849ACTN    H4 8483   7.373   6.385   4.871 -0.7855 -1.0409  1.6469
  849ACTN    H5 8484   7.210   6.415   4.923  0.7533 -0.3851 -0.4596
  849ACTN    C2 8485   7.276   6.539   4.763 -0.3553  0.4773  0.3330
  849ACTN    O1 8486   7.332   6.501   4.655  0.9580  0.3799 -0.5679
  849ACTN    C1 8487   7.178   6.648   4.770 -0.6724  1.1441 -0.0279
  849ACTN    H1 8488   7.128   6.640   4.866  1.7259 -1.6031  1.0356
  849ACTN    H2 8489   7.098   6.639   4.696 -1.2526 -1.4669  0.8931
  849ACTN    H3 8490   7.224   6.747   4.768 -0.1685  0.9243  0.4979
  850ACTN    H6 8491   5.614   6.954   4.566 -0.4023  4.1309 -2.6444
  850ACTN    C3 8492   5.708   6.983   4.613  0.1921 -0.2634 -0.8774
  850ACTN    H4 8493   5.766   6.899   4.652 -0.2699  0.3293  1.0945
  850ACTN    H5 8494   5.764   7.037   4.537 -0.4569  0.5690 -0.7696
  850ACTN    C2 8495   5.686   7.073   4.728 -0.0402 -0.2517  0.2352
  850ACTN    O1 8496   5.696   7.038   4.847 -0.2796  0.3381  0.2822
  850ACTN    C1 8497   5.646   7.218   4.697  0.5902 -0.2394 -0.2266
  850ACTN    H1 8498   5.727   7.286   4.722  0.2447  0.7404 -1.7112
  850ACTN    H2 8499   5.569   7.245   4.769  1.6990 -0.9122  1.2433
  850ACTN    H3 8500   5.620   7.230   4.592 -0.6168  0.7882  0.1839
  851ACTN    H6 8501   3.147   2.180   3.572 -1.2627  1.2642  0.7042
  851ACTN    C3 8502   3.109   2.158   3.472  0.1449  1.0969  0.2055
  851ACTN    H4 8503   3.040   2.232   3.432 -0.2315  0.2388 -0.7461
  851ACTN    H5 8504   3.196   2.142   3.408  1.0530  1.7801  1.2273
  851ACTN    C2 8505   3.039   2.026   3.475 -0.2474 -0.0862  0.8603
  851ACTN    O1 8506   2.964   1.996   3.568 -0.1889  0.1253  0.3099
  851ACTN    C1 8507   3.059   1.937   3.362 -0.2464  0.6568 -0.2244
  851ACTN    H1 8508   3.164   1.919   3.341 -0.0525 -0.2833  1.4574
  851ACTN    H2 8509   3.014   1.980   3.273  0.5326 -0.8537 -1.3612
  851ACTN    H3 8510   3.010   1.841   3.380  2.1171 -0.4496  0.4628
  852ACTN    H6 8511   7.023   4.347   3.134 -0.1172  1.1455  2.1383
  852ACTN    C3 8512   7.115   4.297   3.165  0.3595  0.2288 -0.6751
  852ACTN    H4 8513   7.194   4.371   3.153 -1.0299  1.5018 -2.1507
  852ACTN    H5 8514   7.104   4.281   3.272 -0.3470  0.6354 -0.6849
  852ACTN    C2 8515   7.146   4.167   3.099 -0.1190 -0.6960 -0.2495
  852ACTN    O1 8516   7.246   4.109   3.132  0.1712 -0.0256  0.7354
  852ACTN    C1 8517   7.073   4.124   2.976  0.2943  0.2524  0.1731
  852ACTN    H1 8518   7.131   4.152   2.888 -0.5782 -2.8593 -1.4552
  852ACTN    H2 8519   6.974   4.168   2.970 -0.4027 -1.5623 -2.4663
  852ACTN    H3 8520   7.065   4.016   2.969 -3.5783  0.5838 -1.9396
  853ACTN    H6 8521   0.016   3.455   4.010 -0.7553  1.2326 -0.1551
  853ACTN    C3 8522  -0.091   3.438   4.019 -0.5681  0.2966  0.3605
  853ACTN    H4 8523  -0.134   3.376   3.940 -0.8342  0.3816  0.4371
  853ACTN    H5 8524  -0.109   3.385   4.112  1.2370  1.1556  1.2255
  853ACTN    C2 8525  -0.154   3.571   4.030  0.0482 -1.1003  0.0742
  853ACTN    O1 8526  -0.180   3.614   4.140  0.1043  0.4155  0.2506
  853ACTN    C1 8527  -0.130   3.668   3.923  0.8604  0.2966 -0.5124
  853ACTN    H1 8528  -0.025   3.700   3.923  0.4136  1.8442 -1.8012
  853ACTN    H2 8529  -0.187   3.759   3.944 -1.2335 -1.0622 -0.1741
  853ACTN    H3 8530  -0.157   3.627   3.826 -1.9122  1.5002 -0.2832
  854ACTN    H6 8531   2.839   5.503   1.842  0.6011  2.9647 -1.2002
  854ACTN    C3 8532   2.737   5.540   1.855 -0.0417  0.7094  0.5662
  854ACTN    H4 8533   2.734   5.573   1.959  0.7665  0.1725  0.7723
  854ACTN    H5 8534   2.728   5.617   1.779 -2.0883 -0.7331 -0.6795
  854ACTN    C2 8535   2.660   5.420   1.822 -0.2070  0.7549  0.2462
  854ACTN    O1 8536   2.585   5.365   1.904 -0.2797  0.2467  0.2330
  854ACTN    C1 8537   2.677   5.368   1.677 -0.5706  0.4168  0.8593
  854ACTN    H1 8538   2.585   5.381   1.621 -0.4294 -1.1729  0.2323
  854ACTN    H2 8539   2.700   5.262   1.680  3.0637  1.1314  0.7747
  854ACTN    H3 8540   2.755   5.411   1.614 -0.2876 -1.2563  0.0375
  855ACTN    H6 8541   1.659   1.782   4.820 -0.8928  1.3322 -1.6867
  855ACTN    C3 8542   1.767   1.792   4.825 -0.7225 -0.9459 -0.3509
  855ACTN    H4 8543   1.775   1.866   4.905 -0.7188 -0.7657 -0.5172
  855ACTN    H5 8544   1.816   1.698   4.849  3.3764  0.9963 -0.7209
  855ACTN    C2 8545   1.825   1.861   4.710 -0.1300 -0.0079 -0.2045
  855ACTN    O1 8546   1.927   1.921   4.724  0.4789 -0.2397  0.4957
  855ACTN    C1 8547   1.745   1.890   4.585 -0.4653 -0.0290  0.8150
  855ACTN    H1 8548   1.655   1.831   4.596 -0.8296 -0.0954 -2.1512
  855ACTN    H2 8549   1.794   1.857   4.494  1.1203 -0.9225  1.9659
  855ACTN    H3 8550   1.726   1.997   4.572  0.1290 -0.1356 -1.0201
  856ACTN    H6 8551   4.460   6.602   1.692 -0.3072  0.5673  0.1910
  856ACTN    C3 8552   4.396   6.513   1.692 -0.3262  0.5822 -0.0753
  856ACTN    H4 8553   4.302   6.539   1.644  0.0231  0.8554 -0.6128
  856ACTN    H5 8554   4.447   6.434   1.637 -0.4473  1.0385 -0.8527
  856ACTN    C2 8555   4.372   6.460   1.831  0.0104  0.6665  0.0934
  856ACTN    O1 8556   4.466   6.459   1.909 -0.0850 -0.0425 -0.6549
  856ACTN    C1 8557   4.228   6.423   1.876 -0.0817  0.0240  0.9179
  856ACTN    H1 8558   4.178   6.516   1.904 -0.1163 -0.0111  0.9699
  856ACTN    H2 8559   4.216   6.358   1.962 -2.4278 -0.5016  0.2374
  856ACTN    H3 8560   4.168   6.383   1.794 -2.6134 -0.6625  3.0554
  857ACTN    H6 8561   2.331   3.867   0.074 -2.4336 -0.2181  2.3231
  857ACTN    C3 8562   2.279   3.813  -0.005 -0.1757 -0.0612  0.6968
  857ACTN    H4 8563   2.303   3.706  -0.003 -1.6704 -0.4094  0.4436
  857ACTN    H5 8564   2.174   3.811   0.024  0.0499 -1.9020  1.4546
  857ACTN    C2 8565   2.317   3.869  -0.143  0.1117 -0.1212  0.1729
  857ACTN    O1 8566   2.296   3.796  -0.237  0.2655 -0.2811  0.1314
  857ACTN    C1 8567   2.385   4.000  -0.173 -0.7157 -0.1390 -0.1829
  857ACTN    H1 8568   2.467   3.985  -0.243 -2.2358 -0.5519 -1.9042
  857ACTN    H2 8569   2.432   4.032  -0.080  1.1175 -3.8640  0.2675
  857ACTN    H3 8570   2.314   4.072  -0.213  1.4235  1.1253 -1.8505
  858ACTN    H6 8571   0.359   2.155   4.382  2.4886 -1.8235 -1.2776
  858ACTN    C3 8572   0.292   2.079   4.342  0.2381 -0.4242 -0.3553
  858ACTN    H4 8573   0.231   2.134   4.271 -0.5003 -0.2691  0.4031
  858ACTN    H5 8574   0.351   2.007   4.283  2.8928  1.5806 -0.2651
  858ACTN    C2 8575   0.208   1.999   4.434  0.5587  0.1423 -0.8845
  858ACTN    O1 8576   0.246   1.892   4.484  0.2941  0.1869 -0.1851
  858ACTN    C1 8577   0.066   2.043   4.449 -0.6522 -1.3485 -0.2949
  858ACTN    H1 8578   0.025   2.066   4.350 -2.2689  1.4036  0.9821
  858ACTN    H2 8579   0.061   2.136   4.504  0.1104 -0.3339 -1.8926
  858ACTN    H3 8580   0.011   1.965   4.501 -0.8712  0.4401  2.2162
  859ACTN    H6 8581   1.923   6.026   4.134  2.2848  0.4198 -0.0618
  859ACTN    C3 8582   1.911   6.130   4.165 -0.0833  0.0375  0.4501
  859ACTN    H4 8583   2.014   6.162   4.183  0.5988 -1.5417 -0.5048
  859ACTN    H5 8584   1.864   6.191   4.088  0.2365 -0.8134 -0.4252
  859ACTN    C2 8585   1.821   6.131   4.284 -0.2993  0.5469  0.2898
  859ACTN    O1 8586   1.717   6.079   4.266 -0.5249 -0.2457 -0.2761
  859ACTN    C1 8587   1.837   6.229   4.398 -0.5078  0.0916 -0.3593
  859ACTN    H1 8588   1.813   6.329   4.363  0.4308 -0.3179 -2.2468
  859ACTN    H2 8589   1.944   6.231   4.419  0.0543  0.6492 -3.0237
  859ACTN    H3 8590   1.786   6.204   4.491 -0.2641  0.3228 -0.1640
  860ACTN    H6 8591   2.480   2.345   6.466  0.3504  1.7564 -0.3806
  860ACTN    C3 8592   2.421   2.396   6.389 -0.1097  0.4849 -0.8712
  860ACTN    H4 8593   2.339   2.442   6.443 -0.3302  0.1310 -0.9022
  860ACTN    H5 8594   2.487   2.475   6.355  1.4173 -0.4548 -0.1963
  860ACTN    C2 8595   2.384   2.299   6.285 -0.2851  0.4569 -0.6724
  860ACTN    O1 8596   2.445   2.306   6.180  0.2283 -0.4955  0.3739
  860ACTN    C1 8597   2.277   2.198   6.306 -0.2712  0.3422 -0.0120
  860ACTN    H1 8598   2.310   2.094   6.304  1.1820  0.7813  0.5430
  860ACTN    H2 8599   2.194   2.204   6.235  1.4101  0.4486 -2.0047
  860ACTN    H3 8600   2.228   2.207   6.403  0.0967 -2.2722  0.4655
  861ACTN    H6 8601   0.141   4.337   0.812  0.5239 -3.7730 -0.0403
  861ACTN    C3 8602   0.067   4.324   0.891 -0.2746  0.4006 -0.0033
  861ACTN    H4 8603  -0.018   4.260   0.867  1.8158 -1.9607 -1.2561
  861ACTN    H5 8604   0.114   4.276   0.977  0.2376  1.1138  0.1161
  861ACTN    C2 8605   0.024   4.458   0.940  0.2882  0.4446  1.0618
  861ACTN    O1 8606   0.068   4.505   1.044  0.0933 -0.1436 -0.4293
  861ACTN    C1 8607  -0.084   4.529   0.871  0.3812 -0.1095  0.3527
  861ACTN    H1 8608  -0.049   4.571   0.776  0.3196 -1.1707 -0.1435
  861ACTN    H2 8609  -0.123   4.610   0.932 -0.5666 -1.2583  1.2935
  861ACTN    H3 8610  -0.163   4.456   0.858  0.1729  0.5665 -2.7470
  862ACTN    H6 8611   1.768   6.977   4.308  0.0407  0.1291  1.5688
  862ACTN    C3 8612   1.843   6.899   4.304 -0.0503  0.1186 -0.3033
  862ACTN    H4 8613   1.882   6.889   4.203  1.8625  0.5082  0.3722
  862ACTN    H5 8614   1.929   6.927   4.366 -0.7486  1.1996  0.1813
  862ACTN    C2 8615   1.803   6.766   4.360  0.7585 -0.6372 -0.0059
  862ACTN    O1 8616   1.689   6.725   4.359  0.1374 -0.3563  0.1917
  862ACTN    C1 8617   1.913   6.668   4.404 -0.6597  0.4353  0.4538
  862ACTN    H1 8618   1.981   6.712   4.477  2.0390 -1.2095 -0.9843
  862ACTN    H2 8619   1.978   6.648   4.318 -1.0632  3.0758 -0.5057
  862ACTN    H3 8620   1.886   6.575   4.454 -4.1622  1.0002 -0.2608
  863ACTN    H6 8621   3.563   4.525   1.573  1.7298  0.7875 -1.8695
  863ACTN    C3 8622   3.585   4.628   1.603  0.9216  0.4710 -0.1745
  863ACTN    H4 8623   3.547   4.650   1.703  0.5636 -0.4693 -0.0919
  863ACTN    H5 8624   3.693   4.631   1.600  0.9796 -1.6667 -3.6035
  863ACTN    C2 8625   3.537   4.739   1.511 -0.2412  0.9537 -0.6252
  863ACTN    O1 8626   3.445   4.706   1.433 -0.3878 -0.0997  0.0769
  863ACTN    C1 8627   3.597   4.880   1.524 -0.5153 -0.0458 -0.2281
  863ACTN    H1 8628   3.576   4.925   1.427  1.0101 -0.3187 -0.6995
  863ACTN    H2 8629   3.706   4.878   1.532 -0.6848 -1.7659  2.2239
  863ACTN    H3 8630   3.555   4.925   1.613 -1.5179  2.2941 -1.8240
  864ACTN    H6 8631   6.547   3.084   1.980 -0.3619 -0.3863 -0.0748
  864ACTN    C3 8632   6.647   3.054   2.011 -0.3630 -0.1116  0.1987
  864ACTN    H4 8633   6.673   3.089   2.111  0.9530 -1.3662  0.3186
  864ACTN    H5 8634   6.640   2.945   2.010  1.6425 -0.2718  0.6618
  864ACTN    C2 8635   6.752   3.105   1.923 -1.0498 -0.0733  0.1943
  864ACTN    O1 8636   6.781   3.224   1.916 -0.1790  0.9759  0.2925
  864ACTN    C1 8637   6.824   3.010   1.828  0.4474 -0.9808  0.1894
  864ACTN    H1 8638   6.767   2.995   1.737 -1.4542  1.0035  1.0127
  864ACTN    H2 8639   6.835   2.912   1.873  1.3263  0.8021  4.1162
  864ACTN    H3 8640   6.925   3.046   1.805  0.5887  0.0269  2.2642
  865ACTN    H6 8641   6.753   5.873   4.959  0.8670 -2.3513 -0.4414
  865ACTN    C3 8642   6.845   5.896   4.905  0.3388  0.0282 -0.3799
  865ACTN    H4 8643   6.898   5.807   4.871  0.6597  0.6700 -1.5780
  865ACTN    H5 8644   6.900   5.953   4.980  0.0596  0.8842 -0.8186
  865ACTN    C2 8645   6.803   5.976   4.781  0.1976 -0.1088  0.1538
  865ACTN    O1 8646   6.731   6.074   4.789  0.4679 -0.3775 -0.0969
  865ACTN    C1 8647   6.852   5.909   4.653 -0.4070 -0.6498 -0.8955
  865ACTN    H1 8648   6.808   5.956   4.565 -0.8246 -1.3682 -1.0695
  865ACTN    H2 8649   6.828   5.803   4.656  0.5017 -0.8728 -1.6521
  865ACTN    H3 8650   6.960   5.912   4.642 -0.0909 -0.1142  1.8212
  866ACTN    H6 8651   4.180   6.317   2.521 -0.5625  1.6310 -0.4547
  866ACTN    C3 8652   4.079   6.307   2.482 -0.3218  0.0033 -0.7060
  866ACTN    H4 8653   4.043   6.408   2.463  0.5864  0.3284 -0.7395
  866ACTN    H5 8654   4.077   6.240   2.397  2.3864  0.1017 -0.8804
  866ACTN    C2 8655   3.983   6.255   2.589 -1.0638  0.4457  0.4439
  866ACTN    O1 8656   4.017   6.258   2.707  0.0705 -0.1615  0.2050
  866ACTN    C1 8657   3.852   6.210   2.548  0.1420 -0.3257  0.8917
  866ACTN    H1 8658   3.777   6.281   2.583 -0.5057 -0.1840 -0.7641
  866ACTN    H2 8659   3.827   6.110   2.582 -1.6806  0.0633  0.7397
  866ACTN    H3 8660   3.853   6.220   2.440  1.4321  1.5095  1.0476
  867ACTN    H6 8661   6.516   0.426   2.944  0.5095 -0.0338 -1.0687
  867ACTN    C3 8662   6.602   0.421   3.011 -0.1111 -0.1378 -0.2704
  867ACTN    H4 8663   6.680   0.476   2.959 -0.7105  0.4455 -0.5658
  867ACTN    H5 8664   6.584   0.477   3.103  1.3357  3.7384 -2.2170
  867ACTN    C2 8665   6.649   0.283   3.039 -0.1880  0.1717 -0.9701
  867ACTN    O1 8666   6.574   0.186   3.058  0.1007 -0.1847 -0.5304
  867ACTN    C1 8667   6.798   0.271   3.039 -0.0445 -0.3803 -0.4046
  867ACTN    H1 8668   6.826   0.298   2.937  0.1916 -2.8213 -1.0104
  867ACTN    H2 8669   6.833   0.168   3.051 -1.9448 -1.2732 -2.1506
  867ACTN    H3 8670   6.847   0.332   3.114 -0.0723  0.6464 -1.2105
  868ACTN    H6 8671   7.324   6.260   2.594  0.9973 -2.0216 -2.5612
  868ACTN    C3 8672   7.368   6.186   2.661 -0.1907 -0.3284  0.1696
  868ACTN    H4 8673   7.408   6.104   2.602  1.2934  0.3537  0.2086
  868ACTN    H5 8674   7.449   6.233   2.716  0.4602 -2.0999  0.7684
  868ACTN    C2 8675   7.267   6.137   2.759  0.0220  0.2350  0.2284
  868ACTN    O1 8676   7.274   6.031   2.820 -0.6738 -0.4000  0.0984
  868ACTN    C1 8677   7.149   6.222   2.782  0.6097  0.7425 -0.5368
  868ACTN    H1 8678   7.079   6.189   2.858  0.6592 -2.0716 -1.6612
  868ACTN    H2 8679   7.092   6.235   2.690  1.6403 -2.2199 -1.6390
  868ACTN    H3 8680   7.176   6.325   2.806 -2.4754  1.7869 -1.3597
  869ACTN    H6 8681   6.623   5.773   2.341 -0.8297 -0.3342 -2.4871
  869ACTN    C3 8682   6.544   5.843   2.366  0.5857  0.4177  0.0242
  869ACTN    H4 8683   6.547   5.860   2.474 -0.5079  1.6327 -0.1297
  869ACTN    H5 8684   6.548   5.941   2.318 -0.4479  0.8380  0.7843
  869ACTN    C2 8685   6.404   5.801   2.330  0.6856 -0.6271 -0.8880
  869ACTN    O1 8686   6.349   5.716   2.404 -0.3335  0.3300  0.2058
  869ACTN    C1 8687   6.334   5.876   2.220  0.0084  0.4330 -0.1479
  869ACTN    H1 8688   6.335   5.982   2.246 -0.7293  0.4296 -0.0905
  869ACTN    H2 8689   6.231   5.841   2.217 -0.7838  2.7019 -0.1423
  869ACTN    H3 8690   6.379   5.859   2.122 -2.9730  0.0087 -1.5199
  870ACTN    H6 8691   0.243   4.955   3.007  0.6128 -0.4411 -0.1182
  870ACTN    C3 8692   0.325   4.925   2.942  0.3971 -0.0445 -0.5844
  870ACTN    H4 8693   0.345   4.822   2.972 -0.5293  0.4157  1.6804
  870ACTN    H5 8694   0.296   4.921   2.837 -1.1238  1.3416 -0.2262
  870ACTN    C2 8695   0.446   5.005   2.967  0.2381  0.7262 -0.2080
  870ACTN    O1 8696   0.434   5.117   3.017  0.5306 -0.3397 -0.3280
  870ACTN    C1 8697   0.569   4.966   2.891 -0.3790  0.2191  0.2374
  870ACTN    H1 8698   0.651   5.029   2.925 -0.0106  1.4597 -2.7939
  870ACTN    H2 8699   0.564   4.981   2.783  0.6986 -1.1859 -0.0111
  870ACTN    H3 8700   0.608   4.866   2.909 -1.3904 -0.4510 -1.1761
  871ACTN    H6 8701   0.192   4.160   2.503 -0.4942 -1.2193 -1.1642
  871ACTN    C3 8702   0.181   4.112   2.600 -0.0063  0.7519 -0.1217
  871ACTN    H4 8703   0.147   4.014   2.569  2.2117 -0.3694  0.8590
  871ACTN    H5 8704   0.278   4.117   2.650  0.6221  1.5725 -1.4103
  871ACTN    C2 8705   0.075   4.167   2.685  0.3148 -1.1802 -0.1866
  871ACTN    O1 8706  -0.026   4.194   2.629  0.0541 -0.8002 -0.0578
  871ACTN    C1 8707   0.087   4.187   2.828 -0.7445 -0.0267 -0.6308
  871ACTN    H1 8708   0.050   4.099   2.881 -2.7161  1.5983  0.7845
  871ACTN    H2 8709   0.034   4.276   2.860  3.7327  1.9616  1.7257
  871ACTN    H3 8710   0.192   4.198   2.854 -1.0767  0.6834  0.4192
  872ACTN    H6 8711   3.930   1.194   4.581 -0.6517  0.2685  0.1437
  872ACTN    C3 8712   3.873   1.102   4.598  0.3528 -0.3429  0.1997
  872ACTN    H4 8713   3.769   1.117   4.625  1.3699  0.7957  3.7875
  872ACTN    H5 8714   3.890   1.043   4.508 -1.3816  1.8989 -1.6621
  872ACTN    C2 8715   3.918   1.039   4.726 -0.3190 -0.1758  0.1187
  872ACTN    O1 8716   3.853   0.956   4.791  0.4606  0.3888  0.4312
  872ACTN    C1 8717   4.051   1.082   4.783 -0.5043 -0.5690 -0.2446
  872ACTN    H1 8718   4.143   1.051   4.735 -0.6065  0.5944 -1.2320
  872ACTN    H2 8719   4.062   1.047   4.886 -0.1833  2.0329  0.6423
  872ACTN    H3 8720   4.062   1.190   4.791 -0.9337 -0.6331  1.3742
  873ACTN    H6 8721   2.036   6.042   6.413 -0.3441 -0.3960  0.2742
  873ACTN    C3 8722   1.991   5.991   6.328 -0.4293 -0.2036  0.2030
  873ACTN    H4 8723   2.075   5.971   6.261 -0.9674 -0.2961 -0.4514
  873ACTN    H5 8724   1.946   5.897   6.359  1.0343 -0.9650  0.0263
  873ACTN    C2 8725   1.884   6.070   6.257 -0.0713  0.3474 -0.4324
  873ACTN    O1 8726   1.839   6.031   6.147 -0.3550  0.4533 -0.3520
  873ACTN    C1 8727   1.887   6.215   6.286  0.0578  0.5964 -0.0778
  873ACTN    H1 8728   1.924   6.269   6.199 -1.3762  1.3054 -0.2471
  873ACTN    H2 8729   1.948   6.240   6.373 -1.4334  1.0222  0.8481
  873ACTN    H3 8730   1.788   6.249   6.315 -0.5479 -1.1889  0.0005
  874ACTN    H6 8731   2.883   6.225   6.521  0.5771  0.0724 -0.6022
  874ACTN    C3 8732   2.834   6.299   6.584  0.3494 -0.9697  0.4533
  874ACTN    H4 8733   2.881   6.308   6.682 -0.1400 -2.3683  0.8242
  874ACTN    H5 8734   2.854   6.398   6.543 -0.6504  0.1100  2.4900
  874ACTN    C2 8735   2.691   6.275   6.589 -0.4767 -0.1214 -1.1960
  874ACTN    O1 8736   2.650   6.160   6.568 -0.0684  0.0709  0.3338
  874ACTN    C1 8737   2.607   6.385   6.645 -0.7185  0.3686 -0.4976
  874ACTN    H1 8738   2.533   6.419   6.573  0.1457  1.5899 -0.8118
  874ACTN    H2 8739   2.670   6.469   6.672  2.7306 -2.0580 -0.6342
  874ACTN    H3 8740   2.556   6.352   6.736 -1.2756  2.4274 -0.0374
  875ACTN    H6 8741   0.439   3.163   0.578 -3.3989 -1.4915  1.3098
  875ACTN    C3 8742   0.400   3.140   0.479 -0.3088  0.2629 -0.3779
  875ACTN    H4 8743   0.399   3.232   0.420  1.1076 -0.1613 -1.0872
  875ACTN    H5 8744   0.469   3.071   0.429  0.1762 -0.3380  1.0842
  875ACTN    C2 8745   0.264   3.079   0.482 -0.0161  0.0043  0.4503
  875ACTN    O1 8746   0.163   3.147   0.469 -0.0606  0.3454  0.1980
  875ACTN    C1 8747   0.244   2.928   0.465 -0.4998 -0.5149  0.9890
  875ACTN    H1 8748   0.289   2.877   0.550  0.5981  0.3434  0.9373
  875ACTN    H2 8749   0.291   2.890   0.375 -1.4769  0.4361  0.0669
  875ACTN    H3 8750   0.138   2.901   0.473 -1.0652  0.7085 -1.8607
  876ACTN    H6 8751   6.986   1.389   5.369  0.4801 -0.2260  0.5776
  876ACTN    C3 8752   6.979   1.453   5.281 -0.0773  0.2959  0.9908
  876ACTN    H4 8753   6.883   1.503   5.286 -1.0652 -1.3088 -0.8183
  876ACTN    H5 8754   7.054   1.532   5.290  0.9388 -0.4815 -0.3979
  876ACTN    C2 8755   7.014   1.378   5.153  0.1569 -0.2133 -0.1999
  876ACTN    O1 8756   7.084   1.280   5.162  0.2336 -0.1618 -0.3346
  876ACTN    C1 8757   6.906   1.396   5.048  0.4961  0.6506 -0.4535
  876ACTN    H1 8758   6.958   1.364   4.958  0.8871  0.2343 -0.0858
  876ACTN    H2 8759   6.882   1.502   5.037 -0.2146  0.6494  0.9826
  876ACTN    H3 8760   6.821   1.333   5.072  1.0143 -0.3947 -1.3232
  877ACTN    H6 8761   6.166   5.709   5.317 -0.7484 -0.5897  2.3554
  877ACTN    C3 8762   6.253   5.719   5.382  0.5000 -0.6944  0.7383
  877ACTN    H4 8763   6.334   5.659   5.341  0.3303 -0.2770 -0.2149
  877ACTN    H5 8764   6.279   5.824   5.370 -0.5885 -0.7579 -2.7990
  877ACTN    C2 8765   6.221   5.686   5.526  0.0320 -0.8232  0.4702
  877ACTN    O1 8766   6.196   5.568   5.557  0.4560 -0.3392 -0.3742
  877ACTN    C1 8767   6.220   5.787   5.637 -0.2238  1.1053 -0.2367
  877ACTN    H1 8768   6.245   5.892   5.622  1.7725  0.6517 -0.2020
  877ACTN    H2 8769   6.286   5.754   5.717  0.6710 -1.5885 -2.0260
  877ACTN    H3 8770   6.118   5.787   5.674  0.2635  1.3818  1.1171
  878ACTN    H6 8771   1.013   1.618   4.485  1.1278 -1.0489 -2.1041
  878ACTN    C3 8772   0.965   1.699   4.429 -0.3038 -0.3331  0.0702
  878ACTN    H4 8773   0.917   1.764   4.501 -0.0641  1.8488 -1.6990
  878ACTN    H5 8774   1.046   1.753   4.380  0.7596  0.3168  2.4627
  878ACTN    C2 8775   0.857   1.640   4.347 -0.0988  0.1568  0.2672
  878ACTN    O1 8776   0.760   1.583   4.401  0.0139 -0.0951 -0.2708
  878ACTN    C1 8777   0.864   1.657   4.196  0.3711 -0.3556 -0.3249
  878ACTN    H1 8778   0.777   1.645   4.132 -0.9869  1.5834  1.0993
  878ACTN    H2 8779   0.933   1.586   4.150 -1.1657 -0.3489 -2.7227
  878ACTN    H3 8780   0.908   1.755   4.179 -1.9761  0.8083  0.1829
  879ACTN    H6 8781   6.656   5.502   2.434  2.1742 -0.9207  0.8730
  879ACTN    C3 8782   6.580   5.470   2.505  0.2488  0.9951 -0.2891
  879ACTN    H4 8783   6.532   5.557   2.552 -0.7744 -0.4922  1.5061
  879ACTN    H5 8784   6.500   5.410   2.461 -0.4638  0.8994  1.0978
  879ACTN    C2 8785   6.667   5.395   2.603 -0.3661  0.0839 -0.7770
  879ACTN    O1 8786   6.763   5.450   2.659 -0.3594 -0.1477  0.6106
  879ACTN    C1 8787   6.632   5.258   2.645  0.4767  0.4374  0.3933
  879ACTN    H1 8788   6.698   5.183   2.602 -0.9370 -0.7104  0.1919
  879ACTN    H2 8789   6.533   5.228   2.611  0.8042 -0.2174 -0.0018
  879ACTN    H3 8790   6.630   5.251   2.754 -0.4239 -0.5966  0.3262
  880ACTN    H6 8791   2.155   1.341   2.506 -0.1750  1.0417 -0.6149
  880ACTN    C3 8792   2.253   1.293   2.502 -0.7065 -0.1436  0.2950
  880ACTN    H4 8793   2.277   1.257   2.602  1.2046 -0.4156 -0.2410
  880ACTN    H5 8794   2.247   1.200   2.446 -0.5271 -0.1678  0.3167
  880ACTN    C2 8795   2.359   1.385   2.457 -0.0854  0.5509  0.3395
  880ACTN    O1 8796   2.468   1.339   2.448 -0.4190 -0.1055  0.2811
  880ACTN    C1 8797   2.324   1.524   2.414 -0.1555  0.7552  0.0104
  880ACTN    H1 8798   2.297   1.520   2.308  0.1771 -2.0900  0.0130
  880ACTN    H2 8799   2.417   1.580   2.410 -0.3757  1.0560 -1.4175
  880ACTN    H3 8800   2.247   1.572   2.474 -1.3057 -0.4374 -0.4921
  881ACTN    H6 8801   1.986   5.021   2.826 -0.8006 -1.0816 -1.8321
  881ACTN    C3 8802   2.078   4.988   2.779  0.1199 -0.7097 -0.3263
  881ACTN    H4 8803   2.161   4.971   2.847 -0.4864 -0.2341  0.5424
  881ACTN    H5 8804   2.060   4.890   2.736 -0.4697 -0.2743 -1.0877
  881ACTN    C2 8805   2.115   5.088   2.669 -0.5545  0.4127 -0.4906
  881ACTN    O1 8806   2.158   5.196   2.705  0.3284  0.3333 -0.4666
  881ACTN    C1 8807   2.111   5.046   2.527 -0.3412 -0.4611 -0.9791
  881ACTN    H1 8808   2.209   5.010   2.498  0.4210 -0.1951  1.1465
  881ACTN    H2 8809   2.090   5.127   2.456 -0.7898 -1.1095 -1.5851
  881ACTN    H3 8810   2.038   4.966   2.516 -1.0361 -0.0729  0.6078
  882ACTN    H6 8811   4.073   2.054   6.732  0.8514  0.4269  0.8318
  882ACTN    C3 8812   4.038   2.145   6.682  0.1092 -0.1375  0.3039
  882ACTN    H4 8813   3.991   2.125   6.586  1.5201 -2.3886  0.0330
  882ACTN    H5 8814   3.975   2.187   6.760  2.6420 -0.8864  2.8573
  882ACTN    C2 8815   4.157   2.238   6.667  0.0072  0.3842  0.1229
  882ACTN    O1 8816   4.231   2.214   6.572 -0.1409 -0.0050  0.5063
  882ACTN    C1 8817   4.178   2.363   6.747 -0.2386  1.0832  0.1903
  882ACTN    H1 8818   4.147   2.350   6.851 -4.0804 -2.9428 -1.2900
  882ACTN    H2 8819   4.128   2.448   6.700 -1.4581  0.6503  0.6913
  882ACTN    H3 8820   4.284   2.389   6.751  0.1940 -0.8562  2.7133
  883ACTN    H6 8821   0.032   5.087   2.424  0.3740 -0.9300 -0.5207
  883ACTN    C3 8822   0.086   5.147   2.498 -0.2099 -0.5145 -0.4285
  883ACTN    H4 8823   0.185   5.172   2.463 -0.7138  1.4392 -0.5289
  883ACTN    H5 8824   0.030   5.237   2.523  2.7960  0.9679  1.2101
  883ACTN    C2 8825   0.091   5.072   2.628 -0.4138 -0.8255 -0.4607
  883ACTN    O1 8826   0.120   4.953   2.624  0.0726 -0.5450  0.3485
  883ACTN    C1 8827   0.060   5.144   2.752 -0.0971  0.5804 -1.1187
  883ACTN    H1 8828  -0.002   5.082   2.817  1.7664  0.4521  0.6061
  883ACTN    H2 8829   0.014   5.238   2.724  0.1233  0.7232 -0.9968
  883ACTN    H3 8830   0.151   5.166   2.808 -0.8730 -0.3950  0.5781
  884ACTN    H6 8831   6.625   6.402   4.613  3.1291 -0.0772 -1.3961
  884ACTN    C3 8832   6.654   6.477   4.687  0.3364 -0.4183  0.1188
  884ACTN    H4 8833   6.597   6.569   4.673  2.5199  0.8068 -0.9681
  884ACTN    H5 8834   6.636   6.441   4.788 -0.4990 -1.6862 -0.4643
  884ACTN    C2 8835   6.795   6.520   4.695  0.1442 -0.0653 -0.1802
  884ACTN    O1 8836   6.840   6.597   4.609 -0.2871 -0.2154  0.4455
  884ACTN    C1 8837   6.882   6.496   4.807 -0.1314  0.1419  0.6046
  884ACTN    H1 8838   6.930   6.589   4.840  1.0743 -0.7037  1.3068
  884ACTN    H2 8839   6.968   6.437   4.776  0.3846  2.0803 -1.8286
  884ACTN    H3 8840   6.835   6.443   4.890 -0.9400 -2.5692 -1.5179
  885ACTN    H6 8841   3.131   1.077   3.066  0.6316 -0.4297  0.5284
  885ACTN    C3 8842   3.027   1.049   3.049  0.5535  0.3224 -0.2916
  885ACTN    H4 8843   3.027   0.945   3.082 -0.7262  0.8374  1.3682
  885ACTN    H5 8844   2.965   1.109   3.115 -0.6475 -1.1355 -0.0623
  885ACTN    C2 8845   2.973   1.060   2.909  0.1921  0.4713 -0.5044
  885ACTN    O1 8846   2.958   1.166   2.849  0.4862 -0.4503 -0.2685
  885ACTN    C1 8847   2.966   0.939   2.829  0.1606  0.7028  0.3917
  885ACTN    H1 8848   2.995   0.955   2.725 -2.3978  0.7537 -0.3668
  885ACTN    H2 8849   2.861   0.909   2.823  0.2015  0.8192 -1.1090
  885ACTN    H3 8850   3.027   0.860   2.873  0.3290  1.2249  1.1087
  886ACTN    H6 8851   5.468   1.283   6.531  1.8916 -0.7169  2.5782
  886ACTN    C3 8852   5.558   1.334   6.497  0.4542  0.1884 -0.1032
  886ACTN    H4 8853   5.651   1.311   6.549 -0.1109 -1.1034  0.3565
  886ACTN    H5 8854   5.573   1.301   6.394  0.5950  1.8039 -0.6117
  886ACTN    C2 8855   5.554   1.490   6.505 -0.3628  0.2277  0.4796
  886ACTN    O1 8856   5.518   1.531   6.617 -0.8490  0.1675  0.3380
  886ACTN    C1 8857   5.576   1.584   6.388  0.2082  0.5255  0.5894
  886ACTN    H1 8858   5.545   1.681   6.427 -1.0692 -0.5354  2.2562
  886ACTN    H2 8859   5.509   1.558   6.305 -2.0730  1.0218  2.2116
  886ACTN    H3 8860   5.677   1.595   6.349 -0.1759 -0.5812 -0.7627
  887ACTN    H6 8861   3.970   2.785   1.269  1.7448  0.7196  0.0589
  887ACTN    C3 8862   3.928   2.830   1.359  0.4752  0.1146 -0.2188
  887ACTN    H4 8863   3.846   2.767   1.393 -0.7790  2.5167  1.3143
  887ACTN    H5 8864   4.003   2.827   1.438 -0.9236 -0.9232  1.0922
  887ACTN    C2 8865   3.885   2.972   1.338 -0.5970 -0.5255 -0.3289
  887ACTN    O1 8866   3.899   3.059   1.427 -0.6201  1.0015  0.2598
  887ACTN    C1 8867   3.805   3.007   1.214 -0.1690 -0.3190  0.5020
  887ACTN    H1 8868   3.710   3.056   1.235 -0.9430 -1.1813 -0.9033
  887ACTN    H2 8869   3.779   2.921   1.152  0.0419 -1.4498  1.9588
  887ACTN    H3 8870   3.858   3.079   1.151 -1.9891  0.1049 -0.5924
  888ACTN    H6 8871   1.179   0.051   6.380  0.5658  0.4815  0.5900
  888ACTN    C3 8872   1.092   0.081   6.438  0.3343  0.8845  0.0462
  888ACTN    H4 8873   1.061  -0.003   6.501 -1.4920  1.5971  0.1427
  888ACTN    H5 8874   1.123   0.163   6.503 -0.6710  0.1752  1.4701
  888ACTN    C2 8875   0.977   0.109   6.350  0.3739 -0.3629  0.0833
  888ACTN    O1 8876   0.872   0.137   6.402 -0.4215 -0.1243 -0.1581
  888ACTN    C1 8877   0.995   0.118   6.204 -0.4131 -0.0800 -0.5748
  888ACTN    H1 8878   0.901   0.133   6.152 -0.2891 -0.0864 -0.8032
  888ACTN    H2 8879   1.024   0.021   6.164  2.0345  0.5466 -0.4377
  888ACTN    H3 8880   1.072   0.190   6.173  1.0604 -0.7352  1.4396
  889ACTN    H6 8881   2.375   2.319   4.221 -1.7357  1.4827  3.1217
  889ACTN    C3 8882   2.287   2.257   4.206  0.1085 -0.4427 -0.2206
  889ACTN    H4 8883   2.319   2.162   4.162  1.6059  1.4783 -3.4655
  889ACTN    H5 8884   2.226   2.239   4.294 -0.3867 -0.5270 -0.5789
  889ACTN    C2 8885   2.187   2.323   4.115 -0.4633  0.1092  0.3749
  889ACTN    O1 8886   2.162   2.265   4.010 -0.3440 -0.0387 -0.7976
  889ACTN    C1 8887   2.108   2.448   4.148 -0.8554 -0.0644 -0.1422
  889ACTN    H1 8888   2.143   2.500   4.237 -0.9235 -1.3069  0.6264
  889ACTN    H2 8889   2.007   2.417   4.172 -0.4634  0.6499  2.5445
  889ACTN    H3 8890   2.104   2.518   4.065 -2.2051 -1.8408 -1.6284
  890ACTN    H6 8891   5.883   3.985   5.562  0.4278 -1.2614  0.1587
  890ACTN    C3 8892   5.859   3.967   5.458  0.1400  0.5834 -0.1111
  890ACTN    H4 8893   5.803   3.874   5.458  1.7256 -0.4447 -2.4858
  890ACTN    H5 8894   5.792   4.044   5.418  2.1430  2.3396 -0.2071
  890ACTN    C2 8895   5.976   3.952   5.364  0.0497 -0.7565 -0.4455
  890ACTN    O1 8896   6.085   3.931   5.416 -0.1069  0.0499  0.0281
  890ACTN    C1 8897   5.945   3.914   5.219  0.3554  0.2968 -0.3381
  890ACTN    H1 8898   5.966   4.004   5.161  2.3918 -0.7209 -1.2679
  890ACTN    H2 8899   5.838   3.898   5.207  0.4853 -0.9305  0.0111
  890ACTN    H3 8900   6.001   3.827   5.185 -1.8313 -1.5491  0.6260
  891ACTN    H6 8901   7.196   2.362   2.321  1.7017  0.7208  0.5274
  891ACTN    C3 8902   7.149   2.423   2.397 -0.3134 -0.8550  0.5909
  891ACTN    H4 8903   7.055   2.377   2.427 -0.6665  0.1659  1.0959
  891ACTN    H5 8904   7.208   2.421   2.489 -1.0544 -0.9798  1.0689
  891ACTN    C2 8905   7.124   2.561   2.345 -0.2578 -0.3953 -0.2464
  891ACTN    O1 8906   7.033   2.621   2.411 -0.3493  0.1407  0.1863
  891ACTN    C1 8907   7.149   2.603   2.200 -0.4357 -0.4431  0.4372
  891ACTN    H1 8908   7.182   2.707   2.190 -0.9703 -0.2744  0.4230
  891ACTN    H2 8909   7.051   2.597   2.153 -1.9648 -3.3308  3.8285
  891ACTN    H3 8910   7.219   2.543   2.141 -0.1425  0.9482 -0.6697
  892ACTN    H6 8911   1.201   1.370   4.437 -0.0570  0.6894 -1.0160
  892ACTN    C3 8912   1.148   1.355   4.343  0.2137  0.5616 -1.1482
  892ACTN    H4 8913   1.139   1.248   4.328 -0.0945  0.4797 -0.3573
  892ACTN    H5 8914   1.053   1.408   4.353  1.5086  2.9038 -0.8087
  892ACTN    C2 8915   1.209   1.420   4.227 -0.2216 -0.1891  0.5254
  892ACTN    O1 8916   1.239   1.541   4.228 -0.2680 -0.4548  0.0822
  892ACTN    C1 8917   1.247   1.332   4.111 -0.1544 -0.0499  0.6037
  892ACTN    H1 8918   1.221   1.385   4.019 -0.1511 -1.4743 -0.2330
  892ACTN    H2 8919   1.187   1.241   4.112 -1.3857  0.7069  3.7157
  892ACTN    H3 8920   1.352   1.307   4.096 -0.5316 -0.6679 -1.0816
  893ACTN    H6 8921   2.219   1.756   5.726 -0.6855  1.6232  1.5061
  893ACTN    C3 8922   2.190   1.777   5.623 -0.4058 -0.1199  1.0497
  893ACTN    H4 8923   2.128   1.866   5.635  2.1416  1.9601 -0.5517
  893ACTN    H5 8924   2.279   1.800   5.564 -1.5922  1.3580 -0.2238
  893ACTN    C2 8925   2.122   1.663   5.559 -0.4124 -0.0063  0.3051
  893ACTN    O1 8926   2.068   1.680   5.452  0.3055 -0.5329  0.1465
  893ACTN    C1 8927   2.111   1.532   5.613  0.1409  0.3843 -0.5507
  893ACTN    H1 8928   2.166   1.530   5.707 -2.5970  0.9120  1.1362
  893ACTN    H2 8929   2.141   1.452   5.545 -1.7243 -1.8391  1.1584
  893ACTN    H3 8930   2.005   1.513   5.633  0.1742 -1.3622 -1.9036
  894ACTN    H6 8931   0.902   2.644   3.237  1.0664  0.3693  1.5905
  894ACTN    C3 8932   0.807   2.694   3.254  0.4650 -0.0718 -0.4044
  894ACTN    H4 8933   0.827   2.792   3.298  1.8595 -0.9685  1.0162
  894ACTN    H5 8934   0.753   2.719   3.163 -2.3673  1.9381  1.7361
  894ACTN    C2 8935   0.730   2.622   3.357 -0.2315 -0.0614 -0.1739
  894ACTN    O1 8936   0.789   2.603   3.467  1.1071 -0.3182  0.1637
  894ACTN    C1 8937   0.577   2.603   3.334 -0.0727 -0.0667  0.5301
  894ACTN    H1 8938   0.561   2.546   3.243  0.2889 -0.6217  0.8115
  894ACTN    H2 8939   0.527   2.700   3.333 -1.5588 -0.7858  1.6367
  894ACTN    H3 8940   0.533   2.543   3.414  0.4919  1.5245  2.0643
  895ACTN    H6 8941   0.020   1.507   4.221 -0.7912  0.1838  0.4946
  895ACTN    C3 8942   0.059   1.490   4.322  0.1725  0.5967  0.1989
  895ACTN    H4 8943  -0.008   1.539   4.393 -0.6521  0.2739 -0.3365
  895ACTN    H5 8944   0.063   1.383   4.343  0.4483  0.1697 -1.8802
  895ACTN    C2 8945   0.191   1.566   4.340  0.1763  0.3358  0.1035
  895ACTN    O1 8946   0.216   1.646   4.249 -0.3008  0.7053 -0.0455
  895ACTN    C1 8947   0.306   1.522   4.424 -0.3839  0.0311  0.5214
  895ACTN    H1 8948   0.404   1.540   4.380 -0.2499 -0.8719  0.4416
  895ACTN    H2 8949   0.297   1.414   4.435 -1.0947 -0.2125 -2.1048
  895ACTN    H3 8950   0.303   1.568   4.523  0.0574  0.3821  0.3738
  896ACTN    H6 8951   1.945   7.275   3.759  0.3270  0.9449  0.9955
  896ACTN    C3 8952   1.948   7.199   3.836 -0.3710  0.0158  0.1181
  896ACTN    H4 8953   1.882   7.118   3.805  0.6638 -0.8058  0.0192
  896ACTN    H5 8954   2.050   7.163   3.851 -0.6073 -0.7203  0.0006
  896ACTN    C2 8955   1.902   7.242   3.971  0.1238 -0.2345  0.1507
  896ACTN    O1 8956   1.811   7.327   3.978 -0.1300  0.3962 -0.0808
  896ACTN    C1 8957   1.936   7.157   4.090  0.6300  0.4838  0.5332
  896ACTN    H1 8958   2.044   7.151   4.101  0.6212 -0.1134  0.3220
  896ACTN    H2 8959   1.897   7.057   4.071  0.5762  0.4544  0.7951
  896ACTN    H3 8960   1.896   7.197   4.183 -1.0230 -1.9673  0.9018
  897ACTN    H6 8961   7.122   7.095   3.159  0.2568  0.6861  2.6653
  897ACTN    C3 8962   7.140   7.202   3.160  0.2440  0.7367  0.4218
  897ACTN    H4 8963   7.047   7.248   3.194 -0.3059  0.4391 -0.6872
  897ACTN    H5 8964   7.203   7.223   3.246  0.0371  1.4950  0.3963
  897ACTN    C2 8965   7.191   7.270   3.039 -0.3558 -0.0069  0.4597
  897ACTN    O1 8966   7.140   7.376   3.002 -1.0520 -0.8654  0.5059
  897ACTN    C1 8967   7.337   7.236   3.000  0.4179 -0.4605  0.0283
  897ACTN    H1 8968   7.389   7.332   2.993 -1.4766  0.6141  0.1590
  897ACTN    H2 8969   7.344   7.191   2.901 -0.3871 -0.9889  0.2000
  897ACTN    H3 8970   7.389   7.173   3.071  0.8744  0.4050  0.4717
  898ACTN    H6 8971   4.891   1.715   1.892 -0.2513  1.0385  0.8213
  898ACTN    C3 8972   4.883   1.753   1.790  0.7528 -0.2210  0.2615
  898ACTN    H4 8973   4.794   1.708   1.748 -0.0365  1.2023  0.3887
  898ACTN    H5 8974   4.877   1.862   1.793  1.6487 -0.0499 -3.0510
  898ACTN    C2 8975   5.000   1.706   1.721 -0.2775  0.3660 -0.7039
  898ACTN    O1 8976   5.072   1.787   1.664  0.0891  0.0517 -0.5099
  898ACTN    C1 8977   5.042   1.559   1.724 -0.1088 -0.6016  0.2335
  898ACTN    H1 8978   4.952   1.498   1.715 -0.5682 -0.1569  1.5742
  898ACTN    H2 8979   5.071   1.537   1.827 -2.7441 -0.8143  0.9604
  898ACTN    H3 8980   5.118   1.523   1.655  0.1151 -0.8943  0.6250
  899ACTN    H6 8981   3.476   0.587   5.460 -0.2341  0.1595 -0.9884
  899ACTN    C3 8982   3.502   0.487   5.426 -0.6368 -0.1006 -0.5464
  899ACTN    H4 8983   3.465   0.494   5.323  1.6584  2.2905 -1.2420
  899ACTN    H5 8984   3.609   0.470   5.425 -0.7672 -1.1484  1.3100
  899ACTN    C2 8985   3.423   0.393   5.505 -0.0760  0.6537 -0.4636
  899ACTN    O1 8986   3.300   0.382   5.493 -0.2232  0.0027 -0.1498
  899ACTN    C1 8987   3.498   0.297   5.599  0.1123  0.2641 -0.5859
  899ACTN    H1 8988   3.603   0.325   5.605  0.4901 -1.2341  0.1176
  899ACTN    H2 8989   3.499   0.199   5.552  2.2229  0.2561 -0.5750
  899ACTN    H3 8990   3.452   0.291   5.697  2.3132  0.3847  0.4924
  900ACTN    H6 8991   2.584   1.916   2.769  0.6706  1.2980 -0.2760
  900ACTN    C3 8992   2.545   1.951   2.865  0.2931 -0.3976  0.2062
  900ACTN    H4 8993   2.625   1.976   2.935 -0.2756 -0.3932  0.8555
  900ACTN    H5 8994   2.491   2.045   2.853  0.9261 -0.4876 -4.3637
  900ACTN    C2 8995   2.465   1.845   2.930  0.2253 -0.4410 -0.6728
  900ACTN    O1 8996   2.475   1.734   2.884 -0.2860 -0.0966  0.3931
  900ACTN    C1 8997   2.398   1.881   3.062 -0.0565  0.0103  0.2611
  900ACTN    H1 8998   2.403   1.987   3.085  0.9922  0.7511 -3.0611
  900ACTN    H2 8999   2.434   1.820   3.145 -0.0465  0.0722  0.3023
  900ACTN    H3 9000   2.296   1.854   3.037 -0.2454  0.7738  0.2113
  901ACTN    H6 9001   1.432   5.739   3.622  1.0522  0.0659  1.6652
  901ACTN    C3 9002   1.390   5.830   3.664 -0.2934  0.0769  0.3268
  901ACTN    H4 9003   1.308   5.808   3.733  1.0632 -3.0545  0.9951
  901ACTN    H5 9004   1.475   5.875   3.714  0.1632  0.1844 -0.5303
  901ACTN    C2 9005   1.344   5.931   3.561  0.6380 -0.0865 -0.2548
  901ACTN    O1 9006   1.421   6.021   3.525  1.1266 -0.3109  0.6045
  901ACTN    C1 9007   1.209   5.895   3.505  0.2794 -0.0760 -0.0194
  901ACTN    H1 9008   1.230   5.809   3.440  1.1774  1.4621 -1.8014
  901ACTN    H2 9009   1.165   5.969   3.438 -3.2580 -0.8453  1.3440
  901ACTN    H3 9010   1.149   5.858   3.589  0.4200 -0.4974 -0.1035
  902ACTN    H6 9011   0.214   4.723   7.318 -3.4356 -0.5188 -0.1405
  902ACTN    C3 9012   0.217   4.719   7.427  0.0638 -0.2836 -0.1698
  902ACTN    H4 9013   0.111   4.718   7.453 -0.0415 -0.9864 -0.6037
  902ACTN    H5 9014   0.248   4.618   7.454  1.7197 -0.0631 -1.1474
  902ACTN    C2 9015   0.309   4.823   7.484 -0.6845  0.1617  0.3130
  902ACTN    O1 9016   0.274   4.879   7.582  1.0450 -0.1154 -0.3276
  902ACTN    C1 9017   0.450   4.807   7.444 -0.2754 -0.2735 -0.5285
  902ACTN    H1 9018   0.476   4.888   7.376 -0.9362 -0.4232 -0.9571
  902ACTN    H2 9019   0.460   4.717   7.385  0.5833  1.6184 -3.3353
  902ACTN    H3 9020   0.509   4.799   7.535  0.1361 -1.7702 -0.9163
  903ACTN    H6 9021   1.885   3.153   5.267  1.1559  0.1336 -1.0471
  903ACTN    C3 9022   1.949   3.234   5.301  0.2514  0.1619  0.6189
  903ACTN    H4 9023   1.917   3.271   5.399  1.0229  1.3325  0.4284
  903ACTN    H5 9024   1.931   3.315   5.231  2.7222 -0.9852 -1.4149
  903ACTN    C2 9025   2.092   3.184   5.309 -0.0185  0.4737  0.0148
  903ACTN    O1 9026   2.162   3.193   5.210 -1.2343 -0.1964 -0.6220
  903ACTN    C1 9027   2.128   3.087   5.417  0.0955  0.1656 -0.3532
  903ACTN    H1 9028   2.213   3.022   5.393 -0.8456 -1.0555 -0.4245
  903ACTN    H2 9029   2.041   3.023   5.430 -0.7064  0.5533 -3.3827
  903ACTN    H3 9030   2.161   3.136   5.509 -2.8305  1.8698 -0.1575
  904ACTN    H6 9031   3.244   4.403   6.678 -0.4857 -0.5683 -1.7872
  904ACTN    C3 9032   3.312   4.334   6.728 -0.5730  0.7306  0.1898
  904ACTN    H4 9033   3.312   4.249   6.659  0.4380  0.5865  0.3661
  904ACTN    H5 9034   3.410   4.381   6.731  0.0411 -0.5049 -0.3106
  904ACTN    C2 9035   3.277   4.300   6.868 -0.3481  0.0105 -0.0406
  904ACTN    O1 9036   3.353   4.227   6.923 -0.0997  0.1087 -0.8396
  904ACTN    C1 9037   3.169   4.375   6.940 -0.5869 -0.1968  0.2916
  904ACTN    H1 9038   3.131   4.462   6.886 -0.4694 -0.7750 -0.7518
  904ACTN    H2 9039   3.197   4.405   7.041  0.2496  0.8774 -0.2486
  904ACTN    H3 9040   3.080   4.312   6.944 -0.4183 -0.5028 -0.5239
  905ACTN    H6 9041   3.368   0.861   5.193  2.4819 -0.0588  1.2440
  905ACTN    C3 9042   3.334   0.875   5.296  0.7703 -0.3669  0.7254
  905ACTN    H4 9043   3.402   0.820   5.361  1.3551 -1.4938 -0.7882
  905ACTN    H5 9044   3.337   0.982   5.317  2.9840  0.4219 -3.1927
  905ACTN    C2 9045   3.183   0.834   5.301  0.1053  0.2909  0.4439
  905ACTN    O1 9046   3.132   0.757   5.220  0.1622  0.0471  0.4543
  905ACTN    C1 9047   3.125   0.860   5.439  0.6233 -0.5952  0.5004
  905ACTN    H1 9048   3.157   0.955   5.482 -0.3069  0.3643 -0.8880
  905ACTN    H2 9049   3.142   0.779   5.510  2.5192 -0.7787 -0.1291
  905ACTN    H3 9050   3.016   0.861   5.429  0.3353 -1.8056  3.1962
  906ACTN    H6 9051   1.179   7.145   0.104  0.2571 -0.0620  0.9733
  906ACTN    C3 9052   1.117   7.072   0.155 -1.0224  0.5259  0.2866
  906ACTN    H4 9053   1.036   7.029   0.096  0.5106 -1.4090 -0.4808
  906ACTN    H5 9054   1.186   6.989   0.170 -0.3646  0.6783 -1.7868
  906ACTN    C2 9055   1.077   7.105   0.295  0.3991 -0.3683  0.1241
  906ACTN    O1 9056   0.963   7.096   0.336  0.1883  0.3610 -0.2938
  906ACTN    C1 9057   1.183   7.162   0.382  0.0243 -0.4657 -0.7872
  906ACTN    H1 9058   1.146   7.234   0.454  0.9491 -1.4261  0.6582
  906ACTN    H2 9059   1.257   7.216   0.323 -0.6896  2.0874  0.5955
  906ACTN    H3 9060   1.232   7.082   0.438 -1.8003 -0.0173  1.5001
  907ACTN    H6 9061   0.239   0.636   2.331  1.1826 -2.4960  1.4874
  907ACTN    C3 9062   0.295   0.717   2.378  0.0345 -0.5749 -0.3632
  907ACTN    H4 9063   0.306   0.682   2.481  1.1324  0.2918 -0.1773
  907ACTN    H5 9064   0.397   0.715   2.341 -0.5698 -1.1162 -2.0194
  907ACTN    C2 9065   0.239   0.856   2.354 -0.2252 -0.4895 -0.7482
  907ACTN    O1 9066   0.160   0.909   2.434  0.9130  0.5027  0.0016
  907ACTN    C1 9067   0.237   0.899   2.216 -0.1589 -0.6747 -1.0627
  907ACTN    H1 9068   0.301   0.985   2.199 -2.4438  1.2561 -0.2323
  907ACTN    H2 9069   0.140   0.935   2.183  1.8249  1.6908 -4.5597
  907ACTN    H3 9070   0.277   0.818   2.155  1.7187  0.0571 -0.8472
  908ACTN    H6 9071   3.044   6.724   3.425 -2.3792  1.2337 -2.0586
  908ACTN    C3 9072   2.977   6.650   3.469 -0.1734  0.5689  0.3021
  908ACTN    H4 9073   2.960   6.575   3.391 -1.1482 -0.1162  1.1525
  908ACTN    H5 9074   3.025   6.598   3.552  1.2544  0.8348 -0.3432
  908ACTN    C2 9075   2.856   6.716   3.516 -0.3942 -0.3807  0.3985
  908ACTN    O1 9076   2.743   6.684   3.476  0.2214  0.5974  0.3638
  908ACTN    C1 9077   2.873   6.842   3.595 -0.2759 -0.7158 -0.6109
  908ACTN    H1 9078   2.971   6.829   3.642 -1.2934  0.6411  1.9986
  908ACTN    H2 9079   2.804   6.861   3.678 -0.5173  0.7938 -1.1466
  908ACTN    H3 9080   2.865   6.930   3.532  1.1891 -0.3348 -0.2917
  909ACTN    H6 9081   4.979   0.541   5.485 -1.7201  1.1223  1.9787
  909ACTN    C3 9082   5.042   0.521   5.571  0.0152  0.0920  0.4967
  909ACTN    H4 9083   5.005   0.590   5.648 -1.1982  0.1735 -0.1482
  909ACTN    H5 9084   5.017   0.420   5.602  1.6517 -0.1319  1.1280
  909ACTN    C2 9085   5.185   0.514   5.559  0.2162  0.1510 -0.3545
  909ACTN    O1 9086   5.229   0.495   5.445  0.2056  0.2678 -0.5793
  909ACTN    C1 9087   5.279   0.523   5.678  0.0868  0.1721  0.2500
  909ACTN    H1 9088   5.229   0.515   5.774 -2.5190 -1.1135 -1.1506
  909ACTN    H2 9089   5.336   0.616   5.675 -2.0512  1.5501  0.7895
  909ACTN    H3 9090   5.343   0.435   5.687 -0.9663 -0.6163  0.0707
  910ACTN    H6 9091   3.862   5.974   1.461 -0.4659  1.3497  3.0270
  910ACTN    C3 9092   3.952   5.925   1.500  0.2920  0.2544  0.0245
  910ACTN    H4 9093   4.029   5.987   1.454  0.4039  0.0308 -0.0896
  910ACTN    H5 9094   3.953   5.928   1.608  0.6810  0.7352  0.0066
  910ACTN    C2 9095   3.968   5.785   1.453 -0.1554 -0.3860 -0.4927
  910ACTN    O1 9096   4.007   5.691   1.523 -0.2324 -0.0144  0.2823
  910ACTN    C1 9097   3.931   5.756   1.315  0.1660  0.3561 -0.8482
  910ACTN    H1 9098   3.854   5.678   1.320 -0.7568  1.2688 -0.6011
  910ACTN    H2 9099   4.028   5.734   1.271  2.1338  0.5609  3.1921
  910ACTN    H3 9100   3.894   5.844   1.263  1.7058  0.3871 -1.9145
  911ACTN    H6 9101   4.658   4.796   4.184 -1.0118 -1.2665  0.3179
  911ACTN    C3 9102   4.722   4.724   4.131  0.0964  0.3114 -0.5222
  911ACTN    H4 9103   4.665   4.653   4.070 -1.6577  2.5053 -1.5315
  911ACTN    H5 9104   4.772   4.782   4.053 -0.4044  2.0688  0.4186
  911ACTN    C2 9105   4.814   4.658   4.224  0.0456 -0.0555 -0.0804
  911ACTN    O1 9106   4.890   4.568   4.175  0.6343  0.1459 -0.7832
  911ACTN    C1 9107   4.806   4.693   4.368  0.6173  0.0842 -0.4220
  911ACTN    H1 9108   4.710   4.671   4.415 -0.4931  1.1812 -2.1151
  911ACTN    H2 9109   4.827   4.799   4.387  0.2000 -0.0525  0.8627
  911ACTN    H3 9110   4.880   4.638   4.426 -0.3001 -1.4467 -0.6784
  912ACTN    H6 9111   2.371   6.275   2.984 -0.3294  0.4419  1.0646
  912ACTN    C3 9112   2.453   6.219   3.029 -0.3853 -0.5654 -0.0612
  912ACTN    H4 9113   2.543   6.281   3.022 -0.9853  0.4316  0.9183
  912ACTN    H5 9114   2.427   6.191   3.131 -2.4051 -1.4790 -0.8112
  912ACTN    C2 9115   2.484   6.105   2.940 -0.4181 -0.4192 -0.1706
  912ACTN    O1 9116   2.578   6.030   2.966 -0.5770 -0.5234 -0.0312
  912ACTN    C1 9117   2.414   6.069   2.818  0.1339 -0.0617  0.1253
  912ACTN    H1 9118   2.363   6.156   2.777  1.4204 -0.2998 -2.0516
  912ACTN    H2 9119   2.348   5.986   2.844 -0.1179  0.7215  2.1118
  912ACTN    H3 9120   2.484   6.034   2.743  0.2583  1.8529 -0.6876
  913ACTN    H6 9121   6.932   0.194   3.785 -0.0894 -2.2894 -0.5035
  913ACTN    C3 9122   6.973   0.182   3.685 -0.1247  0.4614 -0.8883
  913ACTN    H4 9123   6.908   0.221   3.607 -2.6578 -1.4678  0.2112
  913ACTN    H5 9124   7.067   0.238   3.684 -0.9368  1.8697 -0.2554
  913ACTN    C2 9125   6.986   0.042   3.648  0.0499  0.9824 -0.1919
  913ACTN    O1 9126   6.891  -0.036   3.660  0.0569  0.7416  0.8631
  913ACTN    C1 9127   7.121   0.005   3.579  0.2439 -0.1857 -0.4824
  913ACTN    H1 9128   7.110  -0.051   3.486  0.7354 -0.8685 -0.1259
  913ACTN    H2 9129   7.194  -0.035   3.649  0.9955  0.9043 -0.6356
  913ACTN    H3 9130   7.156   0.101   3.541  0.8373 -1.0728 -2.2125
  914ACTN    H6 9131   6.477   2.892   5.768 -2.5270 -0.4324  0.9568
  914ACTN    C3 9132   6.471   2.833   5.677 -0.1051 -0.0899  0.5368
  914ACTN    H4 9133   6.461   2.726   5.698  0.5400  0.0606  1.6177
  914ACTN    H5 9134   6.380   2.860   5.622  1.3351  1.5546 -1.0894
  914ACTN    C2 9135   6.596   2.868   5.598  0.1364 -0.2192  0.3644
  914ACTN    O1 9136   6.602   2.893   5.474  0.7776  0.5397 -0.4568
  914ACTN    C1 9137   6.716   2.827   5.668 -0.3110  0.0046 -0.2611
  914ACTN    H1 9138   6.757   2.918   5.713 -1.5532  0.4421 -0.0068
  914ACTN    H2 9139   6.795   2.787   5.604 -0.3249 -0.7884  0.2015
  914ACTN    H3 9140   6.699   2.760   5.753  0.4257  2.3065  1.7614
  915ACTN    H6 9141   6.024   1.406   5.572 -0.9854 -1.4745 -1.0837
  915ACTN    C3 9142   6.112   1.343   5.581  0.1749  0.2580 -0.0017
  915ACTN    H4 9143   6.204   1.399   5.563  0.8968 -1.2384 -1.0010
  915ACTN    H5 9144   6.104   1.272   5.498  0.1087  2.5279 -2.0050
  915ACTN    C2 9145   6.129   1.271   5.713 -0.1585 -0.2388  0.6465
  915ACTN    O1 9146   6.051   1.291   5.808  0.0535 -0.2531  0.0843
  915ACTN    C1 9147   6.252   1.183   5.730 -0.0893 -0.2623  0.3492
  915ACTN    H1 9148   6.299   1.198   5.827 -0.8037 -2.6403  1.0852
  915ACTN    H2 9149   6.327   1.213   5.656 -0.6068 -1.7342 -0.7839
  915ACTN    H3 9150   6.225   1.080   5.711  1.0972 -0.6780  0.8710
  916ACTN    H6 9151   1.507   0.829   4.962  1.8413 -1.4260 -0.4369
  916ACTN    C3 9152   1.441   0.751   4.999  0.3922 -0.4127 -0.8554
  916ACTN    H4 9153   1.338   0.788   5.008  0.7255  0.3365  0.0217
  916ACTN    H5 9154   1.459   0.669   4.929  2.2438 -1.5594  0.9139
  916ACTN    C2 9155   1.490   0.706   5.139 -0.3558 -0.4347  0.0675
  916ACTN    O1 9156   1.481   0.779   5.237  0.2701  0.2483 -0.1607
  916ACTN    C1 9157   1.492   0.555   5.159  0.2629  0.0765 -0.3080
  916ACTN    H1 9158   1.389   0.521   5.143  0.5917 -1.1038  0.0289
  916ACTN    H2 9159   1.536   0.533   5.256  1.6997  0.7032 -0.8130
  916ACTN    H3 9160   1.551   0.511   5.079  0.8284  2.4384 -1.2283
  917ACTN    H6 9161   1.171   5.189   6.092  0.5554 -0.3815  0.1256
  917ACTN    C3 9162   1.214   5.152   6.185 -0.4622 -0.4972  0.5546
  917ACTN    H4 9163   1.136   5.154   6.262 -0.2810 -0.7735  0.7500
  917ACTN    H5 9164   1.240   5.047   6.172  1.7533  0.1220 -0.1927
  917ACTN    C2 9165   1.331   5.241   6.212  0.4535  0.3390  0.1394
  917ACTN    O1 9166   1.351   5.266   6.325 -0.0458 -0.4121 -0.1258
  917ACTN    C1 9167   1.424   5.262   6.098 -0.5732 -0.4034  0.0450
  917ACTN    H1 9168   1.371   5.299   6.010 -0.1677  0.1693  0.0426
  917ACTN    H2 9169   1.466   5.167   6.064  0.4502  0.2265 -0.4623
  917ACTN    H3 9170   1.499   5.337   6.123 -0.9365  0.0217 -0.1371
  918ACTN    H6 9171   4.859   0.207   1.101 -0.3262  1.2601 -1.5518
  918ACTN    C3 9172   4.962   0.241   1.087  0.2692 -0.2615 -1.0130
  918ACTN    H4 9173   5.017   0.251   1.181  0.4516 -0.6691 -1.0785
  918ACTN    H5 9174   5.018   0.173   1.024 -1.0230 -1.2780 -1.0777
  918ACTN    C2 9175   4.946   0.372   1.027  0.3915  0.7974  0.1758
  918ACTN    O1 9176   4.918   0.366   0.907  0.2292 -0.0598 -0.0913
  918ACTN    C1 9177   5.010   0.492   1.085  0.7959 -0.1177 -0.5796
  918ACTN    H1 9178   4.995   0.574   1.015 -1.7890 -0.7962 -0.8664
  918ACTN    H2 9179   5.118   0.477   1.092  0.6061 -1.2409  0.2089
  918ACTN    H3 9180   4.965   0.510   1.183  0.2659  0.2018 -0.8830
  919ACTN    H6 9181   4.127   5.938   6.685 -0.1342 -0.0839  0.6078
  919ACTN    C3 9182   4.162   6.039   6.706  0.1540  0.0932 -0.7271
  919ACTN    H4 9183   4.205   6.025   6.805 -2.5050 -2.0262  0.1783
  919ACTN    H5 9184   4.243   6.060   6.636  1.3731  1.8296  1.1480
  919ACTN    C2 9185   4.061   6.146   6.700  0.1327  0.7910 -0.6946
  919ACTN    O1 9186   4.004   6.158   6.592 -0.0952  0.3075 -0.2305
  919ACTN    C1 9187   4.038   6.253   6.804  0.1067  0.3123 -0.8415
  919ACTN    H1 9188   3.934   6.270   6.832 -0.1533 -1.2796 -0.7775
  919ACTN    H2 9189   4.081   6.347   6.770  3.5681 -1.3299 -1.2119
  919ACTN    H3 9190   4.084   6.216   6.896 -0.8417 -1.0400 -0.9050
  920ACTN    H6 9191   4.045   2.735   4.065 -1.1978  2.4703 -1.4090
  920ACTN    C3 9192   4.002   2.767   4.160 -0.1002 -0.5943  0.1981
  920ACTN    H4 9193   4.000   2.876   4.156 -0.1772 -0.6514 -2.1174
  920ACTN    H5 9194   3.900   2.732   4.166  1.0805 -4.2168 -0.0396
  920ACTN    C2 9195   4.068   2.710   4.271  0.2866  0.2394  0.9401
  920ACTN    O1 9196   4.106   2.784   4.363 -0.2238  0.1124  0.0819
  920ACTN    C1 9197   4.074   2.568   4.287  0.0690  0.7896  0.2552
  920ACTN    H1 9198   4.021   2.526   4.201 -0.4683  2.7140 -0.3886
  920ACTN    H2 9199   4.017   2.539   4.375  2.0017 -1.9636  0.6449
  920ACTN    H3 9200   4.174   2.528   4.298  0.0129  0.8595  1.0811
  921ACTN    H6 9201   1.379   6.614   4.274  1.4514  2.7590 -1.5693
  921ACTN    C3 9202   1.301   6.637   4.201 -0.2658  0.3119 -0.5699
  921ACTN    H4 9203   1.343   6.632   4.101  2.9193  0.7347  0.6694
  921ACTN    H5 9204   1.267   6.739   4.219 -1.0572 -0.2002  0.9307
  921ACTN    C2 9205   1.196   6.537   4.214 -0.3869 -0.1117 -0.5986
  921ACTN    O1 9206   1.195   6.478   4.320 -0.1815  0.0334  0.2916
  921ACTN    C1 9207   1.096   6.516   4.101 -0.5319 -0.2993 -0.3960
  921ACTN    H1 9208   1.053   6.416   4.101 -1.4608  0.0855  0.8077
  921ACTN    H2 9209   1.145   6.521   4.004  0.5023 -1.8813  0.0122
  921ACTN    H3 9210   1.015   6.588   4.104  0.6284  1.0229 -0.5522
  922ACTN    H6 9211   1.884   1.484   3.303  1.2688 -0.8445 -1.3612
  922ACTN    C3 9212   1.873   1.592   3.297 -0.1761 -0.8907 -0.0230
  922ACTN    H4 9213   1.894   1.624   3.399 -1.0736  1.8557 -0.6737
  922ACTN    H5 9214   1.949   1.623   3.225  0.9565  0.0481  1.5622
  922ACTN    C2 9215   1.740   1.633   3.251  0.4056 -0.0338 -0.9785
  922ACTN    O1 9216   1.704   1.748   3.270  0.1820  0.0597  0.2413
  922ACTN    C1 9217   1.683   1.548   3.150 -0.5739  0.1715  0.3598
  922ACTN    H1 9218   1.675   1.449   3.194 -1.4532  0.3448  0.5915
  922ACTN    H2 9219   1.754   1.527   3.069 -1.1588 -0.8335  0.1039
  922ACTN    H3 9220   1.589   1.583   3.108 -1.7703 -0.2366  2.6236
  923ACTN    H6 9221   4.863   3.380   4.524  2.3075  0.9154  0.3145
  923ACTN    C3 9222   4.889   3.392   4.419  0.6887 -0.5175 -0.2624
  923ACTN    H4 9223   4.980   3.451   4.423  1.2806 -1.4572  0.4007
  923ACTN    H5 9224   4.895   3.287   4.388 -0.6762  0.2039 -3.1193
  923ACTN    C2 9225   4.768   3.458   4.357  0.1958 -0.2389  0.2554
  923ACTN    O1 9226   4.654   3.423   4.385 -0.1721 -0.1491 -0.3486
  923ACTN    C1 9227   4.790   3.588   4.279  0.5141 -0.1951  0.6101
  923ACTN    H1 9228   4.704   3.585   4.212  1.0699 -0.6020 -0.0910
  923ACTN    H2 9229   4.880   3.579   4.218  1.9198  4.0339  1.8598
  923ACTN    H3 9230   4.802   3.680   4.337  4.3579  0.5469 -1.1725
  924ACTN    H6 9231   6.745   3.498   3.679  0.5308  0.8541  0.3802
  924ACTN    C3 9232   6.647   3.543   3.695 -0.4122 -0.8478 -0.4827
  924ACTN    H4 9233   6.618   3.596   3.603  1.2039 -0.3137 -0.6934
  924ACTN    H5 9234   6.651   3.615   3.776  0.0158 -0.8728 -0.4843
  924ACTN    C2 9235   6.541   3.437   3.723 -0.0681  0.3878 -0.3813
  924ACTN    O1 9236   6.425   3.450   3.705 -0.4338  0.1478 -0.0784
  924ACTN    C1 9237   6.585   3.294   3.762 -0.7332  0.0378  0.2835
  924ACTN    H1 9238   6.567   3.228   3.677 -0.2883 -1.7646  1.5617
  924ACTN    H2 9239   6.522   3.266   3.847 -0.3089 -0.6378  0.3731
  924ACTN    H3 9240   6.691   3.294   3.786 -0.4849 -0.3118 -0.8021
  925ACTN    H6 9241   2.106   0.173   6.106 -0.5610 -0.6053 -0.4100
  925ACTN    C3 9242   2.092   0.217   6.007  0.3885  0.2379 -0.1848
  925ACTN    H4 9243   2.187   0.233   5.957  0.9132  0.0806  0.7409
  925ACTN    H5 9244   2.019   0.155   5.954  0.2199 -1.2113  1.6692
  925ACTN    C2 9245   2.024   0.345   6.017 -0.1014 -0.5585 -0.6594
  925ACTN    O1 9246   2.088   0.448   6.013  0.1858  0.2858 -0.3100
  925ACTN    C1 9247   1.885   0.354   6.064 -0.1715 -0.4720 -0.1734
  925ACTN    H1 9248   1.894   0.369   6.172  0.9462  1.1238 -0.4722
  925ACTN    H2 9249   1.825   0.263   6.052 -1.8389  0.7585 -1.3019
  925ACTN    H3 9250   1.834   0.442   6.025  2.8872  2.2271  1.6647
  926ACTN    H6 9251   6.746   4.981   6.234  0.6966  3.2610 -1.4190
  926ACTN    C3 9252   6.852   4.954   6.233  0.0797  0.5560  0.0258
  926ACTN    H4 9253   6.864   4.859   6.181  1.5759  0.8022 -0.1162
  926ACTN    H5 9254   6.897   5.037   6.177 -2.0556  1.5022 -0.3314
  926ACTN    C2 9255   6.908   4.944   6.376 -0.3406  0.3328 -0.1421
  926ACTN    O1 9256   6.855   4.995   6.475 -0.1762  1.2129 -0.1148
  926ACTN    C1 9257   7.040   4.870   6.385  0.0314  0.1680  0.3319
  926ACTN    H1 9258   7.041   4.833   6.487  1.4740  1.4410  0.7962
  926ACTN    H2 9259   7.123   4.940   6.370  0.6137 -0.8002 -1.0946
  926ACTN    H3 9260   7.053   4.787   6.315 -0.8231 -0.0971  0.4766
  927ACTN    H6 9261   3.970   0.378   4.853 -2.0830 -0.5659  1.1034
  927ACTN    C3 9262   3.942   0.471   4.806 -0.1751 -0.2941  0.4343
  927ACTN    H4 9263   3.899   0.545   4.874 -0.4087 -1.1107  1.1890
  927ACTN    H5 9264   4.035   0.516   4.773  0.1135 -1.9869 -1.1717
  927ACTN    C2 9265   3.842   0.457   4.692  0.1772  0.5213 -0.8870
  927ACTN    O1 9266   3.833   0.344   4.645 -0.0202  0.2959  0.0583
  927ACTN    C1 9267   3.739   0.569   4.678  0.1303  0.0334 -0.1050
  927ACTN    H1 9268   3.639   0.531   4.699  0.1141 -0.1441 -0.4949
  927ACTN    H2 9269   3.746   0.610   4.577  1.5477 -1.6265 -0.7109
  927ACTN    H3 9270   3.754   0.649   4.750 -0.7596 -0.8601  1.0821
  928ACTN    H6 9271   3.656   7.064   5.441  0.2768  0.7714 -0.6929
  928ACTN    C3 9272   3.600   6.978   5.405 -0.0155  0.3913  0.6256
  928ACTN    H4 9273   3.670   6.916   5.347  0.7583  2.2092 -0.4212
  928ACTN    H5 9274   3.561   6.922   5.490  1.9870  1.4743  2.3087
  928ACTN    C2 9275   3.478   7.019   5.325  0.3534 -0.1882 -0.0771
  928ACTN    O1 9276   3.461   6.985   5.211  0.1030  0.3273 -0.4332
  928ACTN    C1 9277   3.384   7.113   5.397 -0.0178  0.0454  0.8030
  928ACTN    H1 9278   3.368   7.067   5.495  0.0634  0.5399  1.0523
  928ACTN    H2 9279   3.294   7.109   5.336 -0.0612 -2.9211  0.9940
  928ACTN    H3 9280   3.436   7.209   5.407 -0.9954  0.7812 -0.9592
  929ACTN    H6 9281   1.695   4.889   6.431 -1.5367 -1.0158 -1.0168
  929ACTN    C3 9282   1.747   4.794   6.434  0.0786 -0.1307 -0.6549
  929ACTN    H4 9283   1.843   4.807   6.485  0.0635  0.7256 -0.8408
  929ACTN    H5 9284   1.691   4.729   6.502 -1.6700  1.2133 -0.7846
  929ACTN    C2 9285   1.768   4.730   6.297 -0.4285  0.1465  0.0245
  929ACTN    O1 9286   1.857   4.777   6.223 -0.3525 -0.1916 -0.3538
  929ACTN    C1 9287   1.684   4.615   6.256 -0.1305  0.0470 -0.3598
  929ACTN    H1 9288   1.651   4.628   6.153  1.5780 -2.9899 -1.3868
  929ACTN    H2 9289   1.597   4.599   6.319 -0.0867  0.5078 -0.1816
  929ACTN    H3 9290   1.745   4.524   6.254  0.2617  0.3173 -1.0559
  930ACTN    H6 9291   4.065   3.410   0.024 -3.2750  0.2298 -1.7267
  930ACTN    C3 9292   4.107   3.452  -0.068 -0.0254  0.6657 -0.1097
  930ACTN    H4 9293   4.214   3.461  -0.053  0.3983 -2.3821 -1.0011
  930ACTN    H5 9294   4.103   3.375  -0.145  0.4758 -1.0903  1.5737
  930ACTN    C2 9295   4.032   3.579  -0.112 -0.0541  0.2767 -0.6743
  930ACTN    O1 9296   3.922   3.614  -0.069 -0.0037 -0.1926  0.5264
  930ACTN    C1 9297   4.092   3.657  -0.223 -0.4845  0.2081  0.3128
  930ACTN    H1 9298   4.110   3.758  -0.186  0.5745  0.6113 -1.2534
  930ACTN    H2 9299   4.033   3.662  -0.314 -0.9053 -0.3522  0.5527
  930ACTN    H3 9300   4.192   3.619  -0.243 -0.3284 -0.3244  2.0265
  931ACTN    H6 9301   0.566   5.251   2.791 -1.7208 -0.2972 -0.3043
  931ACTN    C3 9302   0.578   5.358   2.774  0.0227 -0.3960  0.1985
  931ACTN    H4 9303   0.577   5.412   2.869 -1.3641  1.3171 -0.7458
  931ACTN    H5 9304   0.675   5.380   2.728 -0.3679 -1.0484 -0.9749
  931ACTN    C2 9305   0.477   5.403   2.685  0.1367 -0.6128  0.6044
  931ACTN    O1 9306   0.479   5.520   2.645  0.6253 -0.0920 -0.9745
  931ACTN    C1 9307   0.381   5.304   2.624 -0.6523  0.0378  0.7079
  931ACTN    H1 9308   0.275   5.318   2.647 -1.2212 -0.6256 -1.4043
  931ACTN    H2 9309   0.412   5.206   2.662  0.8890  0.8422  1.5793
  931ACTN    H3 9310   0.404   5.307   2.517  1.1454 -1.3243  1.0309
  932ACTN    H6 9311   6.560   5.748   6.940  0.5483 -1.7784  0.0672
  932ACTN    C3 9312   6.557   5.761   7.048 -0.3409 -0.1726 -0.1288
  932ACTN    H4 9313   6.659   5.733   7.075  0.6477  2.0147 -1.5102
  932ACTN    H5 9314   6.535   5.865   7.073 -1.3384 -0.3883 -0.0612
  932ACTN    C2 9315   6.449   5.668   7.108 -0.4309 -0.3522  0.6612
  932ACTN    O1 9316   6.431   5.676   7.230 -0.2779 -0.0585  0.0176
  932ACTN    C1 9317   6.359   5.591   7.018  0.0439  0.6479  0.3614
  932ACTN    H1 9318   6.340   5.645   6.925  0.5314 -1.2651 -0.8629
  932ACTN    H2 9319   6.266   5.570   7.072  0.9953  0.2580  1.8889
  932ACTN    H3 9320   6.411   5.499   6.995 -0.9317  0.3981 -0.8831
  933ACTN    H6 9321   6.532   5.729   4.791  1.7064  0.1583  0.2729
  933ACTN    C3 9322   6.457   5.702   4.865  1.0325  0.3862 -0.3177
  933ACTN    H4 9323   6.364   5.721   4.813  0.3214 -2.1848 -0.0571
  933ACTN    H5 9324   6.453   5.595   4.888  1.2007 -0.1064 -2.5199
  933ACTN    C2 9325   6.445   5.778   4.992  0.2748  0.2489  0.0192
  933ACTN    O1 9326   6.467   5.719   5.094 -0.0238  0.3648  0.0764
  933ACTN    C1 9327   6.455   5.931   4.998  0.1337 -0.4335  1.0499
  933ACTN    H1 9328   6.367   5.974   5.045 -0.0477  2.7293 -2.0033
  933ACTN    H2 9329   6.480   5.968   4.899  1.8399  0.2842  1.7276
  933ACTN    H3 9330   6.535   5.954   5.069  1.2224  1.3005 -0.6923
  934ACTN    H6 9331   1.192   3.484   1.595  1.3861 -0.0761  1.8363
  934ACTN    C3 9332   1.199   3.376   1.603 -0.5446 -0.3516  0.2371
  934ACTN    H4 9333   1.287   3.344   1.547  0.3772 -2.5309  2.8341
  934ACTN    H5 9334   1.212   3.355   1.709 -0.9400 -2.7646 -0.1543
  934ACTN    C2 9335   1.073   3.305   1.560 -0.0591 -0.0286  0.6494
  934ACTN    O1 9336   1.079   3.252   1.447 -0.3914 -0.9519 -0.2927
  934ACTN    C1 9337   0.938   3.331   1.630  0.2410 -0.0830 -0.8106
  934ACTN    H1 9338   0.882   3.403   1.570 -0.2712  0.3815  0.2079
  934ACTN    H2 9339   0.953   3.373   1.729 -0.5863 -0.1055 -0.6705
  934ACTN    H3 9340   0.889   3.234   1.641  0.2775 -0.0136 -0.0203
  935ACTN    H6 9341   5.174   1.114   5.686  0.1800  0.7699  0.4494
  935ACTN    C3 9342   5.240   1.164   5.616  0.4503 -0.1208  0.0543
  935ACTN    H4 9343   5.284   1.251   5.664 -1.3062  0.6810  0.2410
  935ACTN    H5 9344   5.175   1.207   5.539  1.7700 -1.2464 -1.7228
  935ACTN    C2 9345   5.339   1.066   5.562  0.1965 -0.1324  0.8734
  935ACTN    O1 9346   5.408   1.093   5.463 -0.9221  0.2827 -0.4387
  935ACTN    C1 9347   5.358   0.937   5.634 -0.4256  0.0735 -0.2973
  935ACTN    H1 9348   5.269   0.876   5.643 -0.7071  0.4948 -0.2359
  935ACTN    H2 9349   5.393   0.947   5.737 -1.4822  3.1035 -0.1860
  935ACTN    H3 9350   5.433   0.876   5.583  1.9732  0.3186  2.7854
  936ACTN    H6 9351   2.240   1.909   2.190  0.7256  1.0696 -0.5954
  936ACTN    C3 9352   2.324   1.860   2.239 -0.0988  0.4449  0.2423
  936ACTN    H4 9353   2.327   1.757   2.206 -1.3714 -0.1566  1.9667
  936ACTN    H5 9354   2.412   1.902   2.190 -0.0523 -0.4692 -0.4773
  936ACTN    C2 9355   2.323   1.875   2.393  0.7175 -0.6871 -0.7521
  936ACTN    O1 9356   2.224   1.861   2.462  0.0461 -0.1560  0.2768
  936ACTN    C1 9357   2.450   1.873   2.466  0.4285 -0.4613  0.6205
  936ACTN    H1 9358   2.457   1.781   2.524  1.3240 -0.8393 -0.0713
  936ACTN    H2 9359   2.462   1.959   2.532 -2.5127  0.3287  0.2029
  936ACTN    H3 9360   2.533   1.880   2.395 -0.2815 -0.2065 -0.1917
  937ACTN    H6 9361   0.542   5.891   1.854  0.0836  0.1802  0.4205
  937ACTN    C3 9362   0.500   5.854   1.948  0.0387 -0.5287  0.1275
  937ACTN    H4 9363   0.469   5.937   2.012  3.4078  2.3019 -1.7289
  937ACTN    H5 9364   0.405   5.807   1.924 -0.9090  0.9129  0.9568
  937ACTN    C2 9365   0.579   5.762   2.023  0.4050 -0.1164  0.3086
  937ACTN    O1 9366   0.605   5.785   2.139 -0.5044 -0.5328 -0.3166
  937ACTN    C1 9367   0.584   5.624   1.969  0.4877 -0.0409  0.1719
  937ACTN    H1 9368   0.661   5.566   2.019  0.6031  1.5416  1.8383
  937ACTN    H2 9369   0.618   5.638   1.866  0.3910 -2.1168 -0.1706
  937ACTN    H3 9370   0.488   5.572   1.969  2.3654 -3.7283 -0.3212
  938ACTN    H6 9371   3.078   1.260   5.398  0.4903  0.1371 -0.0754
  938ACTN    C3 9372   3.134   1.327   5.333  0.4410 -0.2458 -0.5163
  938ACTN    H4 9373   3.207   1.262   5.285 -0.9118 -0.4852 -2.2649
  938ACTN    H5 9374   3.074   1.366   5.251  1.8437 -1.2804 -2.0779
  938ACTN    C2 9375   3.204   1.431   5.417  0.0712  0.9762  0.7239
  938ACTN    O1 9376   3.139   1.503   5.491  0.1298  0.4586 -0.1327
  938ACTN    C1 9377   3.344   1.455   5.402  0.2421  0.2489  0.0653
  938ACTN    H1 9378   3.385   1.386   5.328 -0.7709 -1.0671  0.7039
  938ACTN    H2 9379   3.398   1.432   5.494 -1.4047  1.9144  1.4804
  938ACTN    H3 9380   3.367   1.558   5.377  1.3455 -0.0717 -0.2731
  939ACTN    H6 9381   0.501   5.072   5.913  0.2725  0.0692 -0.1452
  939ACTN    C3 9382   0.566   5.047   5.997  0.0911 -0.1819 -0.0790
  939ACTN    H4 9383   0.581   4.939   5.995  1.5126 -0.0173  0.7606
  939ACTN    H5 9384   0.659   5.102   5.979  0.1696 -0.9189 -2.0350
  939ACTN    C2 9385   0.505   5.088   6.121  0.7315 -0.0836  0.3777
  939ACTN    O1 9386   0.502   5.206   6.147 -0.0920 -0.8118 -0.3305
  939ACTN    C1 9387   0.447   4.990   6.216 -0.2340 -0.4483  0.1376
  939ACTN    H1 9388   0.341   5.009   6.233 -0.3258 -0.0997 -0.8077
  939ACTN    H2 9389   0.493   4.994   6.315  0.4637  0.2739 -0.2049
  939ACTN    H3 9390   0.461   4.889   6.177 -0.9818 -0.0188 -1.2965
  940ACTN    H6 9391   3.301   3.827   4.378 -0.1663  1.6863 -1.4391
  940ACTN    C3 9392   3.384   3.821   4.307  0.7049  0.2037 -0.3288
  940ACTN    H4 9393   3.416   3.925   4.294 -1.1903  0.6518 -1.6369
  940ACTN    H5 9394   3.467   3.771   4.356  0.3241 -0.9833 -0.8754
  940ACTN    C2 9395   3.357   3.765   4.181 -0.5143  0.0225 -0.1439
  940ACTN    O1 9396   3.383   3.646   4.152  0.6085  0.2584  0.2064
  940ACTN    C1 9397   3.320   3.857   4.059  0.2830  0.3490  0.1972
  940ACTN    H1 9398   3.276   3.952   4.092 -0.8528  0.0214 -0.3548
  940ACTN    H2 9399   3.255   3.809   3.985  2.0666 -1.5305 -0.1798
  940ACTN    H3 9400   3.415   3.876   4.009 -1.5796  4.5876 -2.0403
  941ACTN    H6 9401   0.779   0.441   6.302 -0.0148  1.8872  0.0407
  941ACTN    C3 9402   0.677   0.412   6.277  0.4804 -0.2093  0.3148
  941ACTN    H4 9403   0.665   0.416   6.169  1.8889 -0.8475  0.1161
  941ACTN    H5 9404   0.664   0.305   6.289  0.7862 -0.3862 -0.8473
  941ACTN    C2 9405   0.573   0.487   6.357 -0.2229 -0.2044 -0.0979
  941ACTN    O1 9406   0.606   0.587   6.419  0.0309 -0.7533  0.5619
  941ACTN    C1 9407   0.430   0.457   6.336  0.0549 -0.3089  0.1923
  941ACTN    H1 9408   0.370   0.545   6.314  0.1533  0.2856  2.2175
  941ACTN    H2 9409   0.390   0.409   6.425 -1.5625  1.9032  0.6703
  941ACTN    H3 9410   0.415   0.389   6.252  2.3035 -1.4597  0.6598
  942ACTN    H6 9411   1.722   1.100   3.873  4.6448 -1.1851 -1.0869
  942ACTN    C3 9412   1.744   1.202   3.906 -0.2739 -0.2854 -0.1110
  942ACTN    H4 9413   1.840   1.231   3.862 -0.3702  1.6727  0.9233
  942ACTN    H5 9414   1.667   1.265   3.862 -0.4216 -0.9939 -0.8796
  942ACTN    C2 9415   1.746   1.205   4.056 -0.0838  0.2673  0.0127
  942ACTN    O1 9416   1.852   1.183   4.115 -0.4936  0.9497  0.5694
  942ACTN    C1 9417   1.629   1.251   4.128 -0.4250  0.2448 -0.8153
  942ACTN    H1 9418   1.644   1.317   4.213 -0.8011  0.3392 -0.8212
  942ACTN    H2 9419   1.570   1.169   4.167 -0.3275  0.3848 -0.3686
  942ACTN    H3 9420   1.568   1.308   4.057  0.5582 -1.1928 -2.8622
  943ACTN    H6 9421   2.606   0.693   7.064 -0.7887  0.4024 -0.8211
  943ACTN    C3 9422   2.530   0.721   7.136 -0.2234 -0.3285  0.0738
  943ACTN    H4 9423   2.430   0.695   7.101 -0.0336 -1.1031  0.0989
  943ACTN    H5 9424   2.553   0.665   7.226 -1.8375  0.0032  0.7056
  943ACTN    C2 9425   2.539   0.863   7.173 -0.3826  0.4414 -0.6472
  943ACTN    O1 9426   2.438   0.934   7.174 -0.6604 -0.2596  0.4580
  943ACTN    C1 9427   2.662   0.910   7.238  0.1103 -0.3021 -0.2154
  943ACTN    H1 9428   2.747   0.863   7.188 -1.1297 -0.7338 -1.9885
  943ACTN    H2 9429   2.665   0.865   7.338 -1.8874 -1.9374 -0.8489
  943ACTN    H3 9430   2.673   1.018   7.245 -0.4595 -0.3667  2.1606
  944ACTN    H6 9431   7.018   1.031   0.696 -2.4758 -2.7957 -0.5157
  944ACTN    C3 9432   7.028   1.022   0.588 -0.3292  0.3012 -0.6407
  944ACTN    H4 9433   6.978   0.930   0.557  0.6901 -0.3146 -0.4542
  944ACTN    H5 9434   6.976   1.103   0.536 -0.8696  0.7798  0.6320
  944ACTN    C2 9435   7.167   1.019   0.540  0.5742 -0.1890  0.5950
  944ACTN    O1 9436   7.255   0.967   0.606  0.1218 -0.2992 -0.6482
  944ACTN    C1 9437   7.214   1.086   0.419 -0.3836  0.2725  0.2047
  944ACTN    H1 9438   7.144   1.106   0.338  1.6467  1.7397 -1.2458
  944ACTN    H2 9439   7.291   1.022   0.375 -3.0352 -0.9219 -2.8686
  944ACTN    H3 9440   7.250   1.185   0.448 -0.4769 -0.9423  4.7740
  945ACTN    H6 9441   5.401   6.749   0.885  0.9313  1.8845  0.8642
  945ACTN    C3 9442   5.475   6.743   0.805  0.4767  0.6208  0.5201
  945ACTN    H4 9443   5.527   6.837   0.789 -0.1931  0.8255 -0.4899
  945ACTN    H5 9444   5.549   6.670   0.838 -0.7025  0.0320  1.9668
  945ACTN    C2 9445   5.400   6.693   0.689  0.3909 -0.4007 -0.3016
  945ACTN    O1 9446   5.459   6.674   0.584  0.3774  0.1518  0.3678
  945ACTN    C1 9447   5.256   6.726   0.692  0.5143  0.7599  1.0843
  945ACTN    H1 9448   5.213   6.787   0.772  1.6311  2.3842  0.4705
  945ACTN    H2 9449   5.204   6.631   0.683  1.9207  0.0029  0.8312
  945ACTN    H3 9450   5.228   6.781   0.603 -1.2930  2.4510  2.6416
  946ACTN    H6 9451   0.534   0.979   6.805  3.4017  0.2896 -2.2143
  946ACTN    C3 9452   0.522   0.876   6.773 -0.2637 -0.1830  0.3689
  946ACTN    H4 9453   0.463   0.872   6.682  2.0930 -0.8628 -1.1886
  946ACTN    H5 9454   0.620   0.832   6.755  0.3504  1.8409 -1.3484
  946ACTN    C2 9455   0.464   0.783   6.879  0.2538 -0.8720  0.3098
  946ACTN    O1 9456   0.523   0.770   6.987  0.4331 -0.0128 -0.0456
  946ACTN    C1 9457   0.323   0.724   6.863 -0.1616  0.3224  0.0634
  946ACTN    H1 9458   0.258   0.788   6.803  0.2677  0.1480 -0.6016
  946ACTN    H2 9459   0.276   0.720   6.961 -0.0147  2.7851  0.2429
  946ACTN    H3 9460   0.325   0.623   6.820  3.9774  0.8184 -1.1322
  947ACTN    H6 9461   0.840   6.816   6.366  1.8433  0.9655 -0.4504
  947ACTN    C3 9462   0.813   6.894   6.437  0.6926 -0.0276  0.2114
  947ACTN    H4 9463   0.708   6.924   6.429  0.5838 -0.4413  0.0804
  947ACTN    H5 9464   0.835   6.852   6.535 -1.4312 -0.2084  0.6345
  947ACTN    C2 9465   0.889   7.027   6.426  0.2015 -0.0606  0.1065
  947ACTN    O1 9466   0.838   7.117   6.358 -0.4745  0.3028 -0.4142
  947ACTN    C1 9467   0.994   7.053   6.524  0.0680  0.0572  0.0330
  947ACTN    H1 9468   0.962   7.047   6.628 -1.4666 -1.3154 -0.4965
  947ACTN    H2 9469   1.046   7.148   6.512 -0.1084  0.1776  0.2163
  947ACTN    H3 9470   1.053   6.962   6.508  1.3166  0.6314  1.2481
  948ACTN    H6 9471   3.672   5.543   1.042  0.0279 -1.4475  2.0727
  948ACTN    C3 9472   3.712   5.472   0.970 -0.6021  0.1816  0.0908
  948ACTN    H4 9473   3.719   5.384   1.033  0.0093 -0.1782 -0.4749
  948ACTN    H5 9474   3.641   5.461   0.887  0.3890 -0.0443 -0.7297
  948ACTN    C2 9475   3.847   5.518   0.927  0.2049  0.3716 -0.7228
  948ACTN    O1 9476   3.880   5.635   0.921 -0.1373  0.1681 -0.0219
  948ACTN    C1 9477   3.942   5.400   0.886  0.2622 -0.1350  0.7559
  948ACTN    H1 9478   3.957   5.428   0.782  0.5791  0.5824  0.9956
  948ACTN    H2 9479   3.892   5.303   0.884 -0.2992  0.1621  0.3406
  948ACTN    H3 9480   4.032   5.398   0.947  0.2595 -1.9715  0.7192
  949ACTN    H6 9481   0.255   4.499   4.424  1.3720  2.9301  0.9863
  949ACTN    C3 9482   0.270   4.524   4.319 -0.4220 -0.6006 -0.1581
  949ACTN    H4 9483   0.288   4.631   4.316 -0.3246 -0.5495  1.6581
  949ACTN    H5 9484   0.361   4.471   4.289 -0.2284  0.2332 -1.0696
  949ACTN    C2 9485   0.153   4.475   4.236  0.3671  0.0569  0.3715
  949ACTN    O1 9486   0.161   4.463   4.112  0.0856 -0.3208  0.2143
  949ACTN    C1 9487   0.031   4.434   4.312  0.3665 -0.5326  0.4147
  949ACTN    H1 9488  -0.058   4.420   4.251 -0.3842  0.0719  1.3553
  949ACTN    H2 9489   0.001   4.510   4.385  0.0579 -3.2614  3.2031
  949ACTN    H3 9490   0.061   4.342   4.361  0.1175  0.0514  1.6689
  950ACTN    H6 9491   1.096   1.589   5.273  0.1765  0.9961 -1.3201
  950ACTN    C3 9492   1.160   1.502   5.261 -0.7549 -0.0723  1.0659
  950ACTN    H4 9493   1.115   1.406   5.285 -2.2624  0.2642 -0.3750
  950ACTN    H5 9494   1.198   1.508   5.159 -0.7745 -2.7416  0.8677
  950ACTN    C2 9495   1.274   1.514   5.352 -0.2478  0.1223  0.0887
  950ACTN    O1 9496   1.379   1.547   5.305  0.2422 -0.3535  0.5123
  950ACTN    C1 9497   1.244   1.522   5.494  0.3383 -0.1783 -0.2418
  950ACTN    H1 9498   1.169   1.596   5.522  0.5613  0.3009 -0.9058
  950ACTN    H2 9499   1.330   1.516   5.560  0.9680  1.4034 -0.9027
  950ACTN    H3 9500   1.196   1.427   5.518  2.5811 -2.0098 -2.7208
  951ACTN    H6 9501   0.387   4.484   4.880  1.5208 -1.8807 -0.5875
  951ACTN    C3 9502   0.430   4.507   4.978  0.1071 -0.5878 -0.2459
  951ACTN    H4 9503   0.382   4.448   5.055 -0.3068 -2.2422 -1.7338
  951ACTN    H5 9504   0.537   4.489   4.969  0.3409  1.1818 -1.2167
  951ACTN    C2 9505   0.422   4.653   5.006 -0.1447 -0.6722  0.0561
  951ACTN    O1 9506   0.380   4.686   5.116 -0.6273 -0.1262 -0.0524
  951ACTN    C1 9507   0.466   4.774   4.922 -0.2035 -0.4710  0.0111
  951ACTN    H1 9508   0.385   4.838   4.887 -0.4945 -1.1606 -0.5740
  951ACTN    H2 9509   0.528   4.746   4.837 -0.0169  1.3073 -0.4780
  951ACTN    H3 9510   0.527   4.835   4.989  0.0015 -0.9420  0.2508
  952ACTN    H6 9511   1.300   2.016   5.031 -0.1937  0.0821  0.1903
  952ACTN    C3 9512   1.223   1.949   5.068 -0.3112  0.2999  0.3429
  952ACTN    H4 9513   1.227   1.953   5.177  0.8224 -1.9100  0.4031
  952ACTN    H5 9514   1.126   1.997   5.050  0.7297  1.8359 -1.3610
  952ACTN    C2 9515   1.237   1.816   5.015  0.8389  0.2405  0.3147
  952ACTN    O1 9516   1.141   1.745   4.983 -0.3088  0.3022 -0.3979
  952ACTN    C1 9517   1.362   1.745   5.008  0.8070 -0.6824  0.2363
  952ACTN    H1 9518   1.352   1.659   5.075 -2.0249 -0.7604 -0.2430
  952ACTN    H2 9519   1.449   1.799   5.047  1.2670 -1.5616  0.4435
  952ACTN    H3 9520   1.364   1.698   4.910 -1.4406 -2.5644  1.0383
  953ACTN    H6 9521   3.051   3.403   3.219 -1.6027  1.9544  2.4548
  953ACTN    C3 9522   3.130   3.477   3.234  0.7280 -0.0645  0.5589
  953ACTN    H4 9523   3.184   3.487   3.140 -0.0830  1.7108  0.2478
  953ACTN    H5 9524   3.081   3.569   3.267 -0.4675 -1.0772  1.6748
  953ACTN    C2 9525   3.224   3.426   3.334 -0.2807 -0.1463 -0.1005
  953ACTN    O1 9526   3.343   3.460   3.336 -0.0356 -0.2892  0.3626
  953ACTN    C1 9527   3.172   3.329   3.434  0.8125  0.0339 -0.0245
  953ACTN    H1 9528   3.246   3.312   3.511  2.3349  0.6065 -1.3284
  953ACTN    H2 9529   3.151   3.230   3.394 -2.0438  0.6977 -0.3108
  953ACTN    H3 9530   3.078   3.370   3.472  0.4683 -1.4876  0.7878
  954ACTN    H6 9531   6.081   1.020   4.485  0.2483 -0.3293  0.6566
  954ACTN    C3 9532   6.152   1.047   4.564  0.3995  0.2001  0.3411
  954ACTN    H4 9533   6.220   1.116   4.513 -0.1505 -0.8392 -1.8639
  954ACTN    H5 9534   6.100   1.101   4.642  1.0164  1.2866  0.0163
  954ACTN    C2 9535   6.226   0.922   4.604 -0.1846  0.3863 -0.0174
  954ACTN    O1 9536   6.199   0.808   4.553  0.4484 -0.0377  0.0831
  954ACTN    C1 9537   6.314   0.938   4.723 -0.7102  0.9344 -0.2034
  954ACTN    H1 9538   6.366   1.034   4.729 -1.5434  1.4314 -0.8227
  954ACTN    H2 9539   6.386   0.857   4.729  0.5238  1.7981 -2.6801
  954ACTN    H3 9540   6.252   0.929   4.812 -0.5277 -1.3818 -0.3028
  955ACTN    H6 9541   6.948   6.426   0.504  1.3659 -0.9511 -1.0896
  955ACTN    C3 9542   6.894   6.457   0.415  0.4010  0.0196 -0.1784
  955ACTN    H4 9543   6.810   6.392   0.391  1.3000 -1.3615  0.3678
  955ACTN    H5 9544   6.852   6.558   0.412 -0.7170 -0.4298  0.0713
  955ACTN    C2 9545   6.993   6.450   0.301  0.8476 -0.3119  0.1138
  955ACTN    O1 9546   7.112   6.430   0.320 -0.5816  0.5400 -0.8115
  955ACTN    C1 9547   6.945   6.483   0.164 -0.7377  0.1396  0.4662
  955ACTN    H1 9548   6.948   6.396   0.098  1.5682  0.5062  0.0603
  955ACTN    H2 9549   7.015   6.556   0.124 -0.4552 -1.9158 -2.9596
  955ACTN    H3 9550   6.847   6.529   0.150 -1.0851  0.4548  3.5636
  956ACTN    H6 9551   6.200   5.293   5.243 -1.4322  0.1821  2.1983
  956ACTN    C3 9552   6.270   5.370   5.277 -0.2688  0.3806 -0.5236
  956ACTN    H4 9553   6.249   5.463   5.225  1.4168  0.0159 -1.9286
  956ACTN    H5 9554   6.260   5.391   5.384  1.9199  1.3280 -0.4847
  956ACTN    C2 9555   6.404   5.318   5.250  0.4577  0.4823 -0.6322
  956ACTN    O1 9556   6.445   5.227   5.318 -0.0776  0.4923 -0.3779
  956ACTN    C1 9557   6.462   5.327   5.115  0.3138 -0.4457  0.2379
  956ACTN    H1 9558   6.393   5.293   5.037 -1.5962  1.7162  0.9173
  956ACTN    H2 9559   6.557   5.274   5.105  0.7993  0.1905  1.3560
  956ACTN    H3 9560   6.460   5.434   5.096  0.6362 -0.6908 -1.2016
  957ACTN    H6 9561   6.358   3.968   5.473  0.9750 -1.9025  1.3663
  957ACTN    C3 9562   6.457   4.006   5.444 -0.3862  0.4000 -0.4898
  957ACTN    H4 9563   6.445   4.113   5.425  0.0797  0.9268  1.9624
  957ACTN    H5 9564   6.523   3.994   5.530 -1.6527  0.5422  0.5322
  957ACTN    C2 9565   6.511   3.929   5.333  0.0353 -0.2217  0.5930
  957ACTN    O1 9566   6.541   3.815   5.337 -0.5231 -0.2400 -0.2608
  957ACTN    C1 9567   6.481   3.988   5.201  0.3723  0.0252  0.2218
  957ACTN    H1 9568   6.574   4.010   5.148  0.3268  1.3691  0.6807
  957ACTN    H2 9569   6.439   4.088   5.206  1.7432  0.5679  1.3055
  957ACTN    H3 9570   6.410   3.927   5.145  0.9988 -1.4934  1.0600
  958ACTN    H6 9571   1.548   4.409   6.475 -1.1974  1.3763 -1.9931
  958ACTN    C3 9572   1.489   4.457   6.553 -0.1243 -0.9463  0.3078
  958ACTN    H4 9573   1.521   4.428   6.653 -0.1926 -0.8225  0.3657
  958ACTN    H5 9574   1.500   4.564   6.541 -0.2303 -1.1144 -1.5418
  958ACTN    C2 9575   1.345   4.422   6.523  0.0057 -0.7534 -0.3659
  958ACTN    O1 9576   1.307   4.412   6.410  0.2205 -0.2070  0.2940
  958ACTN    C1 9577   1.250   4.403   6.637 -0.3342 -0.8778 -0.3981
  958ACTN    H1 9578   1.249   4.301   6.676  0.9121 -0.4035  0.9416
  958ACTN    H2 9579   1.150   4.431   6.605 -0.4203 -1.8106 -0.9582
  958ACTN    H3 9580   1.282   4.468   6.718 -0.3909 -1.6042  0.2131
  959ACTN    H6 9581   0.109   3.068   2.561 -1.4934  0.0417  0.7077
  959ACTN    C3 9582   0.112   3.172   2.527 -0.0944 -0.3695 -0.4626
  959ACTN    H4 9583   0.050   3.239   2.586  0.4053 -0.6834  0.4301
  959ACTN    H5 9584   0.217   3.200   2.538 -0.4372  0.6492  0.2332
  959ACTN    C2 9585   0.082   3.186   2.382 -0.1441 -0.1615 -0.4237
  959ACTN    O1 9586  -0.031   3.217   2.341 -0.3190 -0.3479 -0.3072
  959ACTN    C1 9587   0.189   3.155   2.280 -0.1562 -0.0703  0.2046
  959ACTN    H1 9588   0.153   3.094   2.198  1.8377  0.1981 -0.8891
  959ACTN    H2 9589   0.271   3.111   2.338  2.5654  1.2772 -2.5094
  959ACTN    H3 9590   0.216   3.250   2.236  0.1946 -0.7319 -1.0219
  960ACTN    H6 9591   2.963   1.465   3.518  1.2384  1.1567 -1.0955
  960ACTN    C3 9592   2.950   1.373   3.461 -0.3726  0.7255 -0.0600
  960ACTN    H4 9593   2.849   1.362   3.423  0.8930 -2.4615 -2.7968
  960ACTN    H5 9594   3.008   1.385   3.370 -0.4932  1.0835 -0.0893
  960ACTN    C2 9595   2.996   1.245   3.526 -0.0437 -0.1377  0.1420
  960ACTN    O1 9596   3.054   1.155   3.461  0.2169  0.1126 -0.4877
  960ACTN    C1 9597   2.949   1.210   3.664 -0.1653 -0.7828  0.4623
  960ACTN    H1 9598   2.949   1.300   3.726 -2.8400 -0.1821 -0.3345
  960ACTN    H2 9599   2.999   1.124   3.706 -0.4251 -0.3940  1.5849
  960ACTN    H3 9600   2.845   1.177   3.659 -0.3743  0.0796 -1.2596
  961ACTN    H6 9601   5.227   6.271   0.591  0.7515  0.3007 -1.4192
  961ACTN    C3 9602   5.286   6.358   0.620  0.0654  0.3241 -0.0629
  961ACTN    H4 9603   5.389   6.347   0.587 -0.3197 -1.1821 -0.8392
  961ACTN    H5 9604   5.239   6.446   0.577  1.2467 -0.5775 -3.3241
  961ACTN    C2 9605   5.270   6.353   0.774 -0.2142  0.6432  0.6903
  961ACTN    O1 9606   5.328   6.438   0.840  0.4539 -0.5372  0.1328
  961ACTN    C1 9607   5.204   6.240   0.841  0.2034 -0.0345  0.1749
  961ACTN    H1 9608   5.141   6.284   0.919 -0.2933  2.2931 -1.4664
  961ACTN    H2 9609   5.272   6.168   0.886 -0.5553 -0.0081  1.4091
  961ACTN    H3 9610   5.132   6.191   0.775 -0.8522  0.3664  0.9952
  962ACTN    H6 9611   4.911   2.249   6.085  0.6800  0.3127 -1.4110
  962ACTN    C3 9612   4.901   2.354   6.060 -0.4563  0.4642 -0.3768
  962ACTN    H4 9613   4.892   2.363   5.951 -1.5320  0.3689 -0.2984
  962ACTN    H5 9614   4.996   2.400   6.087  0.7143 -0.5039 -2.6530
  962ACTN    C2 9615   4.788   2.426   6.127  0.4603  0.2181  0.4664
  962ACTN    O1 9616   4.758   2.540   6.097 -0.7179 -0.2772 -0.7197
  962ACTN    C1 9617   4.699   2.349   6.225  0.1895 -0.4485  0.1293
  962ACTN    H1 9618   4.679   2.412   6.312 -0.0590 -0.4367  0.0630
  962ACTN    H2 9619   4.747   2.256   6.256 -1.6525 -1.4273  0.0832
  962ACTN    H3 9620   4.608   2.328   6.170 -0.5585  0.4933  1.0081
  963ACTN    H6 9621   1.807   6.834   2.872  3.1593  0.2445  0.0728
  963ACTN    C3 9622   1.807   6.743   2.811 -0.0911  0.0337  0.3086
  963ACTN    H4 9623   1.703   6.725   2.784  0.2153  1.6515 -2.0677
  963ACTN    H5 9624   1.874   6.748   2.725 -0.2822  1.3765  0.2132
  963ACTN    C2 9625   1.852   6.634   2.901 -0.1402 -0.8032  0.0815
  963ACTN    O1 9626   1.792   6.528   2.896 -0.0254 -0.7570 -0.0851
  963ACTN    C1 9627   1.983   6.645   2.970 -0.0162  0.5922 -1.3201
  963ACTN    H1 9628   2.041   6.734   2.947 -0.0659  0.8228 -0.5863
  963ACTN    H2 9629   2.042   6.559   2.940 -1.3772 -1.2611  1.1563
  963ACTN    H3 9630   1.966   6.646   3.078 -0.0809  0.7855 -1.3319
  964ACTN    H6 9631   0.829   2.394   5.092  0.2187 -0.7023  0.4902
  964ACTN    C3 9632   0.760   2.310   5.101 -0.6428 -0.1310 -0.6893
  964ACTN    H4 9633   0.732   2.298   5.206  2.2657 -1.4267 -0.0216
  964ACTN    H5 9634   0.668   2.338   5.050 -1.6185  2.6541  2.3875
  964ACTN    C2 9635   0.827   2.186   5.034  0.2518  0.0116  0.5169
  964ACTN    O1 9636   0.871   2.100   5.110  0.0267  0.5822 -0.3062
  964ACTN    C1 9637   0.857   2.193   4.888 -0.1405 -0.1584  0.9919
  964ACTN    H1 9638   0.779   2.255   4.843  0.8080 -0.5409 -1.2022
  964ACTN    H2 9639   0.841   2.094   4.844 -2.2964  0.9930 -0.9090
  964ACTN    H3 9640   0.948   2.239   4.852  0.6104 -1.4257  1.2301
  965ACTN    H6 9641   3.222   3.682   3.101  1.1331  0.9488  1.8187
  965ACTN    C3 9642   3.214   3.780   3.054 -0.0804  0.3824  0.7991
  965ACTN    H4 9643   3.259   3.770   2.956 -0.5820 -0.8902  0.6856
  965ACTN    H5 9644   3.108   3.801   3.035 -0.3783 -0.7079  1.2145
  965ACTN    C2 9645   3.286   3.879   3.142 -0.4749 -0.7195  0.5815
  965ACTN    O1 9646   3.254   3.995   3.135 -0.1615 -0.6866  0.2939
  965ACTN    C1 9647   3.383   3.837   3.252  0.9188 -0.4965 -0.4681
  965ACTN    H1 9648   3.342   3.856   3.351 -1.2789 -2.0993 -1.0221
  965ACTN    H2 9649   3.480   3.884   3.238  0.5787  0.3958  0.1014
  965ACTN    H3 9650   3.401   3.730   3.248 -0.9459 -0.8428  0.1286
  966ACTN    H6 9651   4.059   2.481   2.056 -1.4314 -0.5123  0.6626
  966ACTN    C3 9652   4.080   2.480   2.163  0.5634  0.5163  0.3117
  966ACTN    H4 9653   4.027   2.563   2.208 -2.3216 -0.6298 -0.8202
  966ACTN    H5 9654   4.029   2.394   2.207 -0.1239  0.5265 -0.4503
  966ACTN    C2 9655   4.227   2.490   2.182  0.0175 -0.5237  0.0721
  966ACTN    O1 9656   4.282   2.562   2.103  0.8195 -0.2986 -0.2946
  966ACTN    C1 9657   4.286   2.446   2.313  0.3202  0.1070  0.1397
  966ACTN    H1 9658   4.206   2.415   2.379 -1.2900 -0.1711 -1.8792
  966ACTN    H2 9659   4.353   2.508   2.372 -0.2787  0.0466  0.8822
  966ACTN    H3 9660   4.343   2.354   2.298  1.2209  0.7433 -0.3720
  967ACTN    H6 9661   6.162   6.037   6.981  0.2982 -0.3163 -1.6021
  967ACTN    C3 9662   6.217   5.956   7.029 -0.9868 -0.3085 -0.0316
  967ACTN    H4 9663   6.249   6.000   7.123 -2.8812  0.1759  0.4056
  967ACTN    H5 9664   6.305   5.931   6.968  0.4271  1.9625  1.0034
  967ACTN    C2 9665   6.121   5.845   7.062  0.0840 -0.7818  0.2265
  967ACTN    O1 9666   6.092   5.758   6.980 -0.4761 -0.1991  0.1601
  967ACTN    C1 9667   6.042   5.853   7.190 -1.0101  0.2723  0.2953
  967ACTN    H1 9668   5.948   5.799   7.185  0.2295 -1.8633 -0.6747
  967ACTN    H2 9669   6.023   5.956   7.221 -0.0081  0.6671 -0.3585
  967ACTN    H3 9670   6.095   5.801   7.269 -1.0195  2.6040  1.8847
  968ACTN    H6 9671   0.216   4.729   6.454  2.1177 -2.4886 -0.7457
  968ACTN    C3 9672   0.173   4.696   6.549  0.6786  0.0030 -0.4840
  968ACTN    H4 9673   0.073   4.736   6.563  1.9750  2.2428  3.0926
  968ACTN    H5 9674   0.182   4.588   6.553  0.0061 -0.0257  0.5718
  968ACTN    C2 9675   0.250   4.762   6.666  0.2934 -0.4673  0.6497
  968ACTN    O1 9676   0.177   4.793   6.757 -0.3497 -0.0414 -0.1323
  968ACTN    C1 9677   0.400   4.752   6.672  0.0523  0.0085 -0.5679
  968ACTN    H1 9678   0.439   4.707   6.581 -1.2658 -0.6399 -0.8332
  968ACTN    H2 9679   0.424   4.694   6.761  0.0867  0.8892  0.0089
  968ACTN    H3 9680   0.444   4.851   6.688 -0.7899  0.6513 -2.0680
  969ACTN    H6 9681   0.385   2.166   2.280 -0.2410  0.7927  0.8109
  969ACTN    C3 9682   0.468   2.235   2.290  0.1906  0.3548  0.2871
  969ACTN    H4 9683   0.457   2.305   2.373 -1.3078 -0.6333  0.9294
  969ACTN    H5 9684   0.561   2.183   2.314 -0.1987 -0.2072  0.5798
  969ACTN    C2 9685   0.478   2.306   2.158 -1.0154 -0.8212 -0.0970
  969ACTN    O1 9686   0.541   2.259   2.065 -0.9270  0.0476  0.2275
  969ACTN    C1 9687   0.394   2.424   2.133 -0.2261  0.4155 -0.0160
  969ACTN    H1 9688   0.425   2.498   2.206  1.2462 -0.0096 -0.1930
  969ACTN    H2 9689   0.286   2.407   2.144 -0.1293 -0.2011  0.0095
  969ACTN    H3 9690   0.411   2.462   2.033 -3.1727 -0.9803 -1.1196
  970ACTN    H6 9691   1.797   7.293   1.340 -0.6026  0.0485 -0.8177
  970ACTN    C3 9692   1.875   7.369   1.329  0.0193 -0.5267 -0.3703
  970ACTN    H4 9693   1.948   7.361   1.411 -0.1699  0.1600 -0.1376
  970ACTN    H5 9694   1.926   7.348   1.235  2.6982  0.4226  0.7977
  970ACTN    C2 9695   1.808   7.501   1.326 -0.1032  0.2923  0.0574
  970ACTN    O1 9696   1.807   7.576   1.231 -0.1630 -0.1531  0.0812
  970ACTN    C1 9697   1.765   7.545   1.453  0.0519  0.3416 -0.6912
  970ACTN    H1 9698   1.701   7.464   1.486 -1.6563  1.7740 -0.3942
  970ACTN    H2 9699   1.701   7.633   1.441 -1.3819 -0.8761 -2.2684
  970ACTN    H3 9700   1.849   7.576   1.515 -0.0527  1.3905 -1.0629
  971ACTN    H6 9701   1.989   3.775   5.173  4.1070  3.2248  0.7144
  971ACTN    C3 9702   1.928   3.811   5.256  0.7244 -0.3558 -0.0572
  971ACTN    H4 9703   1.997   3.853   5.329  1.9590 -1.8402 -0.3270
  971ACTN    H5 9704   1.872   3.896   5.217  1.7110  0.2485 -0.1894
  971ACTN    C2 9705   1.837   3.716   5.323 -0.2976 -0.2744 -0.3583
  971ACTN    O1 9706   1.881   3.629   5.399 -0.1217 -0.4222 -0.5177
  971ACTN    C1 9707   1.692   3.746   5.325 -0.0699  0.1021  0.1646
  971ACTN    H1 9708   1.633   3.667   5.372 -0.4594  1.1100  1.4037
  971ACTN    H2 9709   1.658   3.767   5.223  0.9338 -0.7921 -0.3538
  971ACTN    H3 9710   1.670   3.841   5.375  0.3692  0.9153 -1.1510
  972ACTN    H6 9711   0.659   2.717   2.240 -0.6438 -0.6115  1.9694
  972ACTN    C3 9712   0.578   2.788   2.258 -0.5029  0.1397 -0.3024
  972ACTN    H4 9713   0.524   2.765   2.349  0.1391  2.2928  0.6546
  972ACTN    H5 9714   0.620   2.886   2.282 -0.2042 -0.7584  3.0313
  972ACTN    C2 9715   0.494   2.805   2.129 -0.5254 -0.0106  0.3103
  972ACTN    O1 9716   0.379   2.831   2.141 -0.3110  0.0619 -0.7646
  972ACTN    C1 9717   0.564   2.821   1.994 -0.9016 -0.4726 -0.6379
  972ACTN    H1 9718   0.493   2.860   1.922  1.1503  2.1028 -1.3411
  972ACTN    H2 9719   0.596   2.722   1.959 -3.0696 -1.8132  0.9958
  972ACTN    H3 9720   0.648   2.888   2.010 -1.7021  0.3238  0.2907
  973ACTN    H6 9721   0.138   6.328   1.539  0.0024 -0.2134 -0.7620
  973ACTN    C3 9722   0.074   6.257   1.487  0.0212 -0.4970 -0.3976
  973ACTN    H4 9723   0.079   6.163   1.543  0.1856 -0.3984 -0.2492
  973ACTN    H5 9724  -0.027   6.299   1.497  0.1015  0.4267 -3.1388
  973ACTN    C2 9725   0.093   6.243   1.340  0.2447 -0.3705 -0.2902
  973ACTN    O1 9726   0.203   6.266   1.287 -0.4501 -0.8648 -0.3016
  973ACTN    C1 9727  -0.007   6.170   1.264  0.3747  0.1463 -0.5755
  973ACTN    H1 9728  -0.082   6.109   1.314 -0.3331  0.9792 -0.6256
  973ACTN    H2 9729   0.049   6.094   1.208  1.4364 -0.4236  1.2262
  973ACTN    H3 9730  -0.053   6.232   1.187 -0.1228  1.7533  0.9808
  974ACTN    H6 9731   5.726   6.218   0.261  1.4510 -1.5966  0.9901
  974ACTN    C3 9732   5.783   6.311   0.260  0.4579 -0.9907  0.2439
  974ACTN    H4 9733   5.745   6.381   0.186  1.9495 -1.0819 -0.6240
  974ACTN    H5 9734   5.762   6.374   0.346 -0.8158 -1.4822  0.3160
  974ACTN    C2 9735   5.925   6.283   0.237 -0.4738 -0.0832 -0.2726
  974ACTN    O1 9736   6.005   6.372   0.217  0.1264  0.1856 -0.1720
  974ACTN    C1 9737   5.978   6.144   0.228  0.4674 -0.2180  0.1791
  974ACTN    H1 9738   5.939   6.082   0.147  0.1751 -0.4324  0.4802
  974ACTN    H2 9739   5.951   6.099   0.324 -1.7629 -0.5623 -0.5672
  974ACTN    H3 9740   6.085   6.143   0.212  0.4721 -0.1036  0.2008
  975ACTN    H6 9741   6.883   6.582   2.896 -0.2193 -2.5922  0.1938
  975ACTN    C3 9742   6.988   6.591   2.922 -0.3982 -0.0195  0.1516
  975ACTN    H4 9743   7.013   6.508   2.988  1.2953  1.3594  1.3133
  975ACTN    H5 9744   7.052   6.587   2.834 -1.3015 -0.8018 -0.4828
  975ACTN    C2 9745   7.008   6.719   2.990 -0.0373 -0.3363  0.3601
  975ACTN    O1 9746   7.044   6.727   3.108 -0.2389  0.5171 -0.1185
  975ACTN    C1 9747   6.987   6.848   2.913 -0.1420  0.0045  0.1015
  975ACTN    H1 9748   7.071   6.915   2.926 -0.1490  0.8650 -3.7621
  975ACTN    H2 9749   6.903   6.903   2.955 -0.1385  0.0167  0.0910
  975ACTN    H3 9750   6.971   6.822   2.808  1.0188 -1.6833  0.3233
  976ACTN    H6 9751   6.781   3.774   2.027 -0.5315  0.1754 -0.3827
  976ACTN    C3 9752   6.886   3.800   2.009 -0.2060 -0.8670  0.0034
  976ACTN    H4 9753   6.896   3.831   1.905 -2.8063 -0.2110 -0.1043
  976ACTN    H5 9754   6.903   3.887   2.072  0.9907 -1.7651  0.9496
  976ACTN    C2 9755   6.976   3.683   2.046  0.4955 -0.4026 -0.0573
  976ACTN    O1 9756   7.085   3.703   2.104 -0.1235 -0.3439  0.1684
  976ACTN    C1 9757   6.937   3.538   2.024 -0.0546 -0.2719 -0.8665
  976ACTN    H1 9758   6.917   3.514   1.919 -0.2773  1.0164 -1.1224
  976ACTN    H2 9759   6.850   3.523   2.088  0.8169  0.3365  0.4615
  976ACTN    H3 9760   7.017   3.474   2.059 -0.6501 -0.7625 -0.3866
  977ACTN    H6 9761   3.409   4.407   1.045 -0.7708 -0.7772 -2.8725
  977ACTN    C3 9762   3.430   4.508   1.010 -0.0176  0.2295  0.2558
  977ACTN    H4 9763   3.446   4.501   0.902 -0.7108  0.4798  0.1381
  977ACTN    H5 9764   3.345   4.574   1.027  1.9485  2.8110  0.4156
  977ACTN    C2 9765   3.558   4.553   1.068  0.6512  0.1853  0.7300
  977ACTN    O1 9766   3.632   4.627   1.004  0.0641  0.1642  0.5520
  977ACTN    C1 9767   3.606   4.506   1.203  0.8566  0.3744  0.3385
  977ACTN    H1 9768   3.626   4.399   1.205 -0.1396  0.1910  1.7935
  977ACTN    H2 9769   3.516   4.512   1.265  0.9489 -0.0391  0.5168
  977ACTN    H3 9770   3.688   4.565   1.245  0.7190  2.6512 -2.4621
  978ACTN    H6 9771   6.509   0.362   2.703  1.5114 -1.3554 -0.1050
  978ACTN    C3 9772   6.564   0.444   2.657  0.2675  0.0729  0.9102
  978ACTN    H4 9773   6.640   0.472   2.730  0.4956 -0.6584  0.9613
  978ACTN    H5 9774   6.513   0.538   2.640  0.4549  0.2070  1.0918
  978ACTN    C2 9775   6.625   0.385   2.527  0.5937 -0.5060 -0.2886
  978ACTN    O1 9776   6.689   0.280   2.542 -1.0003 -0.0272  0.1667
  978ACTN    C1 9777   6.577   0.435   2.395 -1.0493 -0.2930  0.1623
  978ACTN    H1 9778   6.665   0.487   2.356 -2.0624  0.6158 -0.9473
  978ACTN    H2 9779   6.496   0.507   2.403 -1.6955 -1.1345  1.4322
  978ACTN    H3 9780   6.563   0.357   2.320  0.1216  1.7482 -2.2362
  979ACTN    H6 9781   5.158   5.968   4.858  0.6985 -1.0326  0.7240
  979ACTN    C3 9782   5.195   6.040   4.930 -0.5483  0.9732 -0.5939
  979ACTN    H4 9783   5.298   6.006   4.938 -0.4759  1.0967 -1.0206
  979ACTN    H5 9784   5.145   6.026   5.026  0.7580  1.4668  0.1735
  979ACTN    C2 9785   5.177   6.187   4.891 -0.0800  0.2982 -0.5588
  979ACTN    O1 9786   5.174   6.209   4.772 -0.5241  0.5204 -0.1893
  979ACTN    C1 9787   5.130   6.287   4.995  0.0521  0.1909  1.0548
  979ACTN    H1 9788   5.074   6.244   5.078  0.3153  0.8210  1.5704
  979ACTN    H2 9789   5.079   6.368   4.942  0.6811  0.2422  0.5266
  979ACTN    H3 9790   5.219   6.330   5.040  0.3524  1.4691 -0.7153
  980ACTN    H6 9791   2.084   0.229   5.669  0.9259  0.5170  1.1233
  980ACTN    C3 9792   2.121   0.305   5.600 -0.1277 -0.1540 -0.2079
  980ACTN    H4 9793   2.076   0.400   5.631  0.4573 -0.4921  1.7573
  980ACTN    H5 9794   2.229   0.310   5.609 -0.1974 -0.5746  0.8874
  980ACTN    C2 9795   2.081   0.278   5.457 -0.6317  0.6701  0.1139
  980ACTN    O1 9796   1.967   0.266   5.422  0.0186  0.3259  0.2163
  980ACTN    C1 9797   2.186   0.255   5.353  0.3051 -0.1431 -0.3200
  980ACTN    H1 9798   2.149   0.288   5.256 -1.1216 -1.2130 -0.1612
  980ACTN    H2 9799   2.194   0.146   5.347  0.0622 -0.2689  1.5137
  980ACTN    H3 9800   2.286   0.297   5.365 -1.1706  2.9550  1.5375
  981ACTN    H6 9801   2.179   1.678   4.738  0.5037 -0.7337 -2.7737
  981ACTN    C3 9802   2.109   1.598   4.759 -0.0084  0.5010  0.6444
  981ACTN    H4 9803   2.171   1.527   4.814 -0.0096  0.7540  0.9742
  981ACTN    H5 9804   2.030   1.633   4.825 -0.2965 -2.0352  1.7299
  981ACTN    C2 9805   2.046   1.554   4.626 -0.0458  0.7223 -0.8207
  981ACTN    O1 9806   1.984   1.630   4.550 -0.1251  0.7290  0.0135
  981ACTN    C1 9807   2.071   1.414   4.589 -0.2998  0.4260 -0.6369
  981ACTN    H1 9808   2.169   1.411   4.541 -1.2697  0.1927 -2.6139
  981ACTN    H2 9809   1.993   1.373   4.525 -0.5907 -2.3953  1.4143
  981ACTN    H3 9810   2.074   1.352   4.679 -0.0730  0.0975 -0.8702
  982ACTN    H6 9811   6.493   1.185   4.239  1.2742  1.0510 -0.5961
  982ACTN    C3 9812   6.435   1.194   4.147  0.2100 -0.4285 -0.0881
  982ACTN    H4 9813   6.474   1.119   4.079 -0.6837  0.0005 -1.0906
  982ACTN    H5 9814   6.445   1.293   4.103 -0.3779 -0.5680 -0.5467
  982ACTN    C2 9815   6.292   1.173   4.176 -0.2546  0.2948 -0.1090
  982ACTN    O1 9816   6.251   1.068   4.213 -0.5686  0.1211  0.2021
  982ACTN    C1 9817   6.195   1.278   4.152  0.2978  0.2025  0.3741
  982ACTN    H1 9818   6.160   1.267   4.049 -0.9906  0.5051  0.7693
  982ACTN    H2 9819   6.240   1.376   4.162  0.0684  0.4802 -1.1232
  982ACTN    H3 9820   6.110   1.259   4.218  0.8875 -0.0783  1.0537
  983ACTN    H6 9821   2.344   6.321   4.224  1.5746  1.3145 -1.8028
  983ACTN    C3 9822   2.253   6.372   4.193  0.0391 -0.3565 -0.1767
  983ACTN    H4 9823   2.215   6.331   4.100 -1.3855 -0.0559  0.2661
  983ACTN    H5 9824   2.177   6.343   4.265 -0.7636  1.5451 -0.2092
  983ACTN    C2 9825   2.278   6.526   4.193  0.9077  0.3597  0.3413
  983ACTN    O1 9826   2.266   6.579   4.298 -0.0866  0.2209 -0.5247
  983ACTN    C1 9827   2.274   6.606   4.064 -0.0697  0.0498 -0.4963
  983ACTN    H1 9828   2.192   6.678   4.064 -0.3574 -0.2385 -2.6465
  983ACTN    H2 9829   2.266   6.535   3.981 -0.1701 -2.6626  1.7417
  983ACTN    H3 9830   2.363   6.668   4.054  0.4271 -0.8789 -2.0538
  984ACTN    H6 9831   0.893   0.053   4.014 -0.8255 -0.9241 -1.3046
  984ACTN    C3 9832   0.793   0.030   4.051 -0.4676 -0.8266 -0.2684
  984ACTN    H4 9833   0.763   0.077   4.145  0.5984 -1.1600  0.2451
  984ACTN    H5 9834   0.720   0.074   3.984 -0.0510  0.9495  0.4264
  984ACTN    C2 9835   0.779  -0.116   4.066 -0.5278 -0.4790  0.2678
  984ACTN    O1 9836   0.722  -0.185   3.988  0.0684  0.0111 -0.1796
  984ACTN    C1 9837   0.851  -0.189   4.170 -0.3989 -0.8261  0.2796
  984ACTN    H1 9838   0.814  -0.290   4.190  0.7125 -1.0242  1.4577
  984ACTN    H2 9839   0.848  -0.133   4.264  0.1380  0.5213 -0.5003
  984ACTN    H3 9840   0.956  -0.201   4.145 -0.2275  0.3613  0.3998
  985ACTN    H6 9841   3.213   5.774   0.179  0.9005  2.9450  0.5714
  985ACTN    C3 9842   3.129   5.784   0.247  0.0255 -0.1178  0.0220
  985ACTN    H4 9843   3.098   5.889   0.249 -0.9644 -0.4066  3.0789
  985ACTN    H5 9844   3.046   5.724   0.211 -1.2371 -0.3631  3.1495
  985ACTN    C2 9845   3.155   5.737   0.384 -0.6935  0.2086 -0.1285
  985ACTN    O1 9846   3.265   5.679   0.412 -0.1100  0.1762 -0.1708
  985ACTN    C1 9847   3.047   5.751   0.494  0.4170 -0.5772  0.0765
  985ACTN    H1 9848   2.964   5.682   0.479  0.3846 -1.0020  2.1185
  985ACTN    H2 9849   3.007   5.849   0.469  0.4033 -0.7819 -0.7137
  985ACTN    H3 9850   3.084   5.743   0.596  0.9505  0.8306 -0.0008
  986ACTN    H6 9851   6.134   5.662   5.115  1.1229  0.6149 -0.9438
  986ACTN    C3 9852   6.065   5.647   5.032  0.3269  0.3357 -0.2449
  986ACTN    H4 9853   5.968   5.689   5.060  0.9881  0.7057  1.4989
  986ACTN    H5 9854   6.098   5.705   4.945 -3.0408  1.8170 -0.6047
  986ACTN    C2 9855   6.065   5.502   4.989 -0.2919 -0.3202 -0.2721
  986ACTN    O1 9856   6.169   5.461   4.938 -0.1166  0.1881  0.5938
  986ACTN    C1 9857   5.946   5.419   5.004  0.0677 -0.1795  0.1763
  986ACTN    H1 9858   5.965   5.356   5.091  2.6240  1.0571  0.5737
  986ACTN    H2 9859   5.937   5.358   4.914  0.0335  0.7786 -0.4801
  986ACTN    H3 9860   5.853   5.476   5.000 -0.9167 -1.7823 -0.2508
  987ACTN    H6 9861   7.171   0.405   4.395  2.7527 -0.9193  0.5161
  987ACTN    C3 9862   7.134   0.348   4.481  0.9252 -0.2804  0.1812
  987ACTN    H4 9863   7.075   0.266   4.440 -1.2245 -0.0551  2.6917
  987ACTN    H5 9864   7.212   0.312   4.548  1.1612 -1.1446 -0.5569
  987ACTN    C2 9865   7.043   0.427   4.556 -0.0184  0.3028 -0.6032
  987ACTN    O1 9866   7.016   0.545   4.526 -0.7038  0.3827  0.0810
  987ACTN    C1 9867   6.975   0.361   4.671  0.6814 -0.2847 -0.5154
  987ACTN    H1 9868   7.049   0.333   4.745 -1.5924  1.6139  2.6189
  987ACTN    H2 9869   6.936   0.269   4.627 -0.0217 -0.6574  0.8568
  987ACTN    H3 9870   6.892   0.414   4.718  1.7151  0.0570  0.9555
  988ACTN    H6 9871   0.648   1.911   5.520 -1.4709 -1.2695 -1.8679
  988ACTN    C3 9872   0.720   1.831   5.502  0.6944  0.2137 -0.0730
  988ACTN    H4 9873   0.737   1.828   5.394 -0.0870  0.1279 -0.1941
  988ACTN    H5 9874   0.808   1.865   5.557 -0.2885 -2.7209  3.4954
  988ACTN    C2 9875   0.670   1.699   5.558  0.0035  0.2858 -0.0739
  988ACTN    O1 9876   0.565   1.686   5.617  0.4064 -0.3376  0.3415
  988ACTN    C1 9877   0.773   1.591   5.575  0.6076 -0.2711 -0.0580
  988ACTN    H1 9878   0.727   1.503   5.531 -0.5723  0.9577 -1.2921
  988ACTN    H2 9879   0.793   1.573   5.681 -1.4260  0.3648  0.4538
  988ACTN    H3 9880   0.871   1.600   5.529  0.3739 -1.1697 -0.7483
  989ACTN    H6 9881   2.257   6.380   2.630  1.2833 -2.5692  1.7612
  989ACTN    C3 9882   2.158   6.354   2.668 -0.1076  0.2475  0.2120
  989ACTN    H4 9883   2.138   6.254   2.630  1.4839  0.2108 -0.5796
  989ACTN    H5 9884   2.161   6.357   2.777 -2.0270 -0.9571  0.3366
  989ACTN    C2 9885   2.046   6.446   2.641 -0.1248 -0.3546  0.5827
  989ACTN    O1 9886   2.086   6.565   2.645  0.4038  0.2374  0.8310
  989ACTN    C1 9887   1.917   6.401   2.583 -0.2765 -0.0652 -1.2360
  989ACTN    H1 9888   1.838   6.386   2.656  0.1296  0.6561 -0.6382
  989ACTN    H2 9889   1.938   6.307   2.532 -1.4649 -0.3525 -1.2051
  989ACTN    H3 9890   1.879   6.469   2.506 -1.3182 -2.2440 -2.6929
  990ACTN    H6 9891   1.285   6.448   3.836  1.3484  4.4618  0.4399
  990ACTN    C3 9892   1.279   6.469   3.729 -0.4786 -0.6000 -0.5943
  990ACTN    H4 9893   1.325   6.382   3.684  2.7344  0.8522 -0.2215
  990ACTN    H5 9894   1.174   6.463   3.700 -0.9197  0.5714  0.7216
  990ACTN    C2 9895   1.355   6.596   3.698  0.5759  0.1678 -0.2971
  990ACTN    O1 9896   1.329   6.690   3.778  0.1009  0.2825  0.6828
  990ACTN    C1 9897   1.425   6.606   3.565 -0.0228 -0.1524 -0.8386
  990ACTN    H1 9898   1.379   6.679   3.498  0.2146 -1.1281 -2.0914
  990ACTN    H2 9899   1.427   6.503   3.530 -1.1623 -0.5622  0.2536
  990ACTN    H3 9900   1.527   6.634   3.589 -0.3632  0.5054 -0.1299
  991ACTN    H6 9901   2.794   6.154   3.926  2.7156  0.4013 -2.0228
  991ACTN    C3 9902   2.859   6.110   4.002  0.0776 -0.2003 -0.0156
  991ACTN    H4 9903   2.918   6.032   3.952  1.0201  0.1149  0.5880
  991ACTN    H5 9904   2.928   6.186   4.039 -0.6064 -1.0066  3.0131
  991ACTN    C2 9905   2.784   6.061   4.117 -0.4656 -0.4416  0.3930
  991ACTN    O1 9906   2.708   5.966   4.098  0.2856 -0.5963 -0.6281
  991ACTN    C1 9907   2.791   6.123   4.252  0.5496 -0.3394 -0.5918
  991ACTN    H1 9908   2.726   6.069   4.320 -1.5515  2.3376 -0.3893
  991ACTN    H2 9909   2.780   6.230   4.266 -0.0810 -0.8411  3.1463
  991ACTN    H3 9910   2.892   6.097   4.283  0.6322 -0.4623 -0.9560
  992ACTN    H6 9911   2.031   2.352   3.346 -1.3679  0.2969 -0.6545
  992ACTN    C3 9912   1.980   2.441   3.382 -0.5486  0.6630 -0.4022
  992ACTN    H4 9913   1.942   2.482   3.288 -1.5427 -0.7414 -0.6195
  992ACTN    H5 9914   1.895   2.399   3.435  1.1186 -1.4504  0.6574
  992ACTN    C2 9915   2.060   2.535   3.466  0.0611 -0.0761  0.3174
  992ACTN    O1 9916   2.001   2.628   3.515 -0.2172 -0.3619  0.5443
  992ACTN    C1 9917   2.194   2.489   3.514 -0.3496  0.4895  0.6426
  992ACTN    H1 9918   2.254   2.577   3.538 -0.0003  0.5259 -0.3556
  992ACTN    H2 9919   2.249   2.419   3.451 -0.0380 -1.3743  2.8949
  992ACTN    H3 9920   2.174   2.433   3.606  0.0525 -3.2821 -1.4576
  993ACTN    H6 9921   4.174   5.651   5.757  0.0558  0.3352 -1.6382
  993ACTN    C3 9922   4.214   5.752   5.763 -0.4008  0.4343  0.3448
  993ACTN    H4 9923   4.165   5.801   5.678 -0.5572  1.0678  0.8005
  993ACTN    H5 9924   4.183   5.801   5.855 -0.4072 -2.4402  1.9209
  993ACTN    C2 9925   4.361   5.755   5.751  0.5721 -0.1142  0.5100
  993ACTN    O1 9926   4.410   5.725   5.643 -0.4765 -0.3796  0.1878
  993ACTN    C1 9927   4.438   5.843   5.849  0.1501 -0.4466 -0.2534
  993ACTN    H1 9928   4.435   5.950   5.829  1.8061 -0.4203 -0.4727
  993ACTN    H2 9929   4.541   5.811   5.836  0.5041 -0.1340  1.6843
  993ACTN    H3 9930   4.399   5.824   5.949 -0.1387 -1.5677 -0.5772
  994ACTN    H6 9931   5.930   5.006   2.827  1.3098 -0.9885  2.8154
  994ACTN    C3 9932   5.877   5.079   2.888 -0.1531  0.1758  0.2442
  994ACTN    H4 9933   5.770   5.080   2.872 -0.3324  0.3038  1.3891
  994ACTN    H5 9934   5.888   5.048   2.992  2.0165  0.2201  0.0508
  994ACTN    C2 9935   5.938   5.215   2.861  0.0549 -0.4201  0.0311
  994ACTN    O1 9936   6.029   5.253   2.933 -0.3523 -0.5578 -0.7055
  994ACTN    C1 9937   5.898   5.294   2.748 -0.5789  0.0907  0.0643
  994ACTN    H1 9938   5.953   5.389   2.741 -0.1602 -0.1479  0.0811
  994ACTN    H2 9939   5.795   5.327   2.759 -0.9116 -1.6752  2.5577
  994ACTN    H3 9940   5.908   5.230   2.661  0.7093 -3.6473  2.8294
  995ACTN    H6 9941   0.876   4.300   0.059 -0.5168  1.3085  0.8481
  995ACTN    C3 9942   0.904   4.324   0.162  1.0860  0.7938  0.5487
  995ACTN    H4 9943   0.996   4.381   0.172  1.2728  0.4418  0.8363
  995ACTN    H5 9944   0.822   4.367   0.219  0.1901 -2.8608  2.1407
  995ACTN    C2 9945   0.927   4.187   0.221 -0.0880  0.5229  0.1634
  995ACTN    O1 9946   0.985   4.174   0.326  0.4042 -0.0371 -0.0532
  995ACTN    C1 9947   0.862   4.065   0.160  0.5229 -0.3372 -0.4711
  995ACTN    H1 9948   0.777   4.031   0.219 -0.1802  1.7776 -0.2343
  995ACTN    H2 9949   0.932   3.982   0.152  1.3738  0.0490  2.2668
  995ACTN    H3 9950   0.834   4.076   0.055  0.4329 -0.2155 -0.4351
  996ACTN    H6 9951   1.135   6.419   5.038  0.8116 -1.2291  1.0329
  996ACTN    C3 9952   1.229   6.444   4.989  0.0203 -0.0599  0.0962
  996ACTN    H4 9953   1.300   6.363   5.006  2.2071  1.8265  0.1608
  996ACTN    H5 9954   1.216   6.457   4.881  1.5307  1.5706  0.0931
  996ACTN    C2 9955   1.284   6.567   5.039  0.5978 -0.2605 -0.3447
  996ACTN    O1 9956   1.223   6.672   5.006 -0.2568 -0.0207  0.0697
  996ACTN    C1 9957   1.391   6.557   5.137 -0.2850 -0.3130 -0.1715
  996ACTN    H1 9958   1.371   6.499   5.227  3.4999 -2.6692 -0.7029
  996ACTN    H2 9959   1.422   6.656   5.170  0.6626 -0.5215 -0.4104
  996ACTN    H3 9960   1.476   6.513   5.084  1.3110 -0.4905  2.4310
  997ACTN    H6 9961   5.166   6.704   0.136  0.0647  1.8332 -0.0915
  997ACTN    C3 9962   5.265   6.661   0.152 -0.5341  0.5832  0.2731
  997ACTN    H4 9963   5.255   6.607   0.246  0.6649 -0.1557 -0.0074
  997ACTN    H5 9964   5.270   6.587   0.072 -1.6854 -3.4790  3.7939
  997ACTN    C2 9965   5.377   6.754   0.158  0.4225 -0.3214  0.0272
  997ACTN    O1 9966   5.478   6.725   0.096 -0.2758  0.2634  0.1349
  997ACTN    C1 9967   5.381   6.858   0.260 -0.0986  0.1043 -0.2838
  997ACTN    H1 9968   5.305   6.833   0.334  1.3381  0.6382  1.3804
  997ACTN    H2 9969   5.360   6.954   0.213  2.6240  1.1827  0.6426
  997ACTN    H3 9970   5.483   6.862   0.297  1.6271 -0.4842 -4.6954
  998ACTN    H6 9971   6.166   4.223   4.374  1.7631  1.5789 -1.7126
  998ACTN    C3 9972   6.199   4.251   4.474 -0.6710 -0.5214 -0.2626
  998ACTN    H4 9973   6.118   4.303   4.525 -0.2317  1.8660 -1.9690
  998ACTN    H5 9974   6.230   4.162   4.530  0.0418 -0.1729 -0.0993
  998ACTN    C2 9975   6.311   4.349   4.463  0.1895 -0.5928  0.3316
  998ACTN    O1 9976   6.413   4.326   4.392  0.0905 -0.0492 -0.5321
  998ACTN    C1 9977   6.275   4.483   4.515 -0.2727 -0.0974 -0.5382
  998ACTN    H1 9978   6.262   4.480   4.623 -0.9937  0.3269 -0.6090
  998ACTN    H2 9979   6.182   4.509   4.464 -0.1587 -0.8344 -1.1376
  998ACTN    H3 9980   6.350   4.556   4.483  1.2027 -1.4009 -0.1225
  999ACTN    H6 9981   3.513   2.707   1.685  1.8109  1.2121  2.5164
  999ACTN    C3 9982   3.587   2.630   1.706  0.8285 -0.4347  0.2034
  999ACTN    H4 9983   3.584   2.603   1.812  1.7705  0.1010  0.3762
  999ACTN    H5 9984   3.556   2.540   1.653  0.2695 -0.9404  1.3664
  999ACTN    C2 9985   3.725   2.677   1.679 -0.1338  0.3788  0.0282
  999ACTN    O1 9986   3.804   2.599   1.630  0.4681 -0.1962 -0.7782
  999ACTN    C1 9987   3.747   2.825   1.643 -0.2352 -0.0817 -0.2961
  999ACTN    H1 9988   3.713   2.896   1.718 -0.9275 -0.1211 -0.5695
  999ACTN    H2 9989   3.678   2.855   1.564 -0.4256  0.4664  0.0798
  999ACTN    H3 9990   3.849   2.854   1.617  0.7350 -0.5787  2.7592
 1000ACTN    H6 9991   1.048   7.167   1.221 -0.5632  0.0056  0.4199
 1000ACTN    C3 9992   0.961   7.138   1.163 -0.5889 -0.2614  0.5910
 1000ACTN    H4 9993   0.954   7.184   1.064  1.7804 -0.4650  0.2938
 1000ACTN    H5 9994   0.970   7.031   1.142 -2.9285 -0.2815 -0.4671
 1000ACTN    C2 9995   0.841   7.158   1.248 -0.1293  0.3144 -0.2113
 1000ACTN    O1 9996   0.828   7.270   1.296 -0.4065 -0.1072  0.4880
 1000ACTN    C1 9997   0.730   7.055   1.274 -0.6096  0.1657 -0.0726
 1000ACTN    H1 9998   0.682   7.076   1.370 -3.0553 -0.8308 -1.0432
 1000ACTN    H2 9999   0.778   6.959   1.291 -0.6527  0.0262 -0.7427
 1000ACTN    H310000   0.665   7.059   1.187  0.0896  2.1000 -0.5329
 1001SOL     OW10001   7.023   0.255   0.558 -0.0674 -0.4531  0.0517
 1001SOL    HW110002   7.002   0.255   0.656  0.1514 -0.8817  0.0985
 1001SOL    HW210003   7.000   0.166   0.519  0.2691 -0.4295 -0.1987
 1002SOL     OW10004   2.876   5.525   3.505 -0.1935 -0.1801 -0.2032
 1002SOL    HW110005   2.888   5.430   3.531 -2.5037 -0.7132 -0.9462
 1002SOL    HW210006   2.781   5.540   3.477  0.1292  2.3428 -0.0686
 1003SOL     OW10007   2.372   5.320   1.445  0.2196  0.0626 -0.2826
 1003SOL    HW110008   2.371   5.255   1.521  0.3340 -0.3884 -0.6605
 1003SOL    HW210009   2.385   5.270   1.359  0.3285  0.5894 -0.5751
 1004SOL     OW10010   2.475   0.254   7.259  0.0882 -0.1160  0.0072
 1004SOL    HW110011   2.567   0.276   7.226  0.0969 -1.4033 -0.8531
 1004SOL    HW210012   2.456   0.307   7.342  1.8250 -0.2908  0.5340
 1005SOL     OW10013   4.985   4.615   6.609 -0.3929 -0.4009  0.2991
 1005SOL    HW110014   4.914   4.546   6.621 -0.9425  0.3060  1.1759
 1005SOL    HW210015   4.945   4.706   6.621  0.9718 -0.0501  2.3384
 1006SOL     OW10016   1.208   0.961   0.986  0.1971 -0.7903  0.2410
 1006SOL    HW110017   1.246   0.899   1.055 -3.5394 -1.0414  2.1835
 1006SOL    HW210018   1.153   0.908   0.921 -1.1830  0.1696  0.6089
 1007SOL     OW10019   2.734   3.796   5.618  0.3701  0.2454 -0.3144
 1007SOL    HW110020   2.680   3.813   5.700  1.0191  1.8430 -0.2154
 1007SOL    HW210021   2.678   3.746   5.551 -1.2072  1.7880 -0.1809
 1008SOL     OW10022   4.315   0.311   6.661 -0.0953 -0.1089  0.1898
 1008SOL    HW110023   4.410   0.283   6.649  0.2060  1.4648 -1.2740
 1008SOL    HW210024   4.300   0.335   6.757  0.9216 -0.5520  0.4731
 1009SOL     OW10025   4.529   5.875   0.577 -0.3506  0.0648 -0.1794
 1009SOL    HW110026   4.620   5.842   0.553 -0.4783 -0.0492 -0.4967
 1009SOL    HW210027   4.538   5.955   0.637 -0.0463 -0.2336  0.1730
 1010SOL     OW10028   6.543   6.886   3.972  0.4865  0.2939  0.1682
 1010SOL    HW110029   6.580   6.940   3.896 -2.9054  2.1953 -0.2228
 1010SOL    HW210030   6.545   6.940   4.056 -1.8146  0.6876  0.0201
 1011SOL     OW10031   5.907   5.742   0.913  0.2859 -0.2346 -0.1629
 1011SOL    HW110032   5.866   5.791   0.990  1.0474  1.3816 -0.7760
 1011SOL    HW210033   5.836   5.693   0.863 -0.5636  0.6608  0.1577
 1012SOL     OW10034   5.995   1.556   2.390  0.2431  0.0339  0.0177
 1012SOL    HW110035   6.074   1.538   2.449  0.5376 -2.3876 -1.0476
 1012SOL    HW210036   5.997   1.493   2.313 -1.4733  1.5351 -1.2857
 1013SOL     OW10037   3.941   3.635   1.295 -0.1853  0.0165  0.1019
 1013SOL    HW110038   3.945   3.657   1.393 -0.0366  1.2426 -0.1680
 1013SOL    HW210039   3.850   3.657   1.260 -0.0609  0.0990 -0.1634
 1014SOL     OW10040   3.923   4.156   5.025  0.0718 -0.1860  0.0948
 1014SOL    HW110041   4.008   4.149   4.973 -0.5730 -2.2708 -0.7171
 1014SOL    HW210042   3.879   4.244   5.005  2.1257  1.0182  0.7006
 1015SOL     OW10043   3.135   4.423   1.416  0.4163 -0.1445 -0.3418
 1015SOL    HW110044   3.140   4.348   1.350  1.3302 -0.6834  0.3313
 1015SOL    HW210045   3.194   4.498   1.386 -0.6070  0.3814 -1.0890
 1016SOL     OW10046   7.116   1.203   1.373 -0.3072  0.0880 -0.0550
 1016SOL    HW110047   7.116   1.302   1.387 -0.6431  0.1689 -0.6127
 1016SOL    HW210048   7.107   1.184   1.275 -0.6339 -0.4985  0.0937
 1017SOL     OW10049   2.773   2.167   1.410  0.4332  0.5546  0.1443
 1017SOL    HW110050   2.752   2.164   1.312  0.4970  1.8230  0.0917
 1017SOL    HW210051   2.867   2.135   1.424  1.0431  2.0610 -0.4075
 1018SOL     OW10052   0.723   0.256   5.189  0.3105  0.5037  0.4461
 1018SOL    HW110053   0.637   0.269   5.238 -0.2459 -1.0338 -0.0774
 1018SOL    HW210054   0.714   0.290   5.095  0.2874  0.3767  0.4025
 1019SOL     OW10055   6.146   5.506   4.086 -0.2546  0.5763  0.3151
 1019SOL    HW110056   6.114   5.529   3.994  1.4218 -2.1151 -1.0041
 1019SOL    HW210057   6.246   5.498   4.085 -0.0581  2.3205  2.8199
 1020SOL     OW10058   2.623   2.479   7.145 -0.3239 -0.2584 -0.4324
 1020SOL    HW110059   2.717   2.461   7.176 -1.0339 -1.9055  0.8410
 1020SOL    HW210060   2.601   2.576   7.160  1.4720  0.3463 -1.6016
 1021SOL     OW10061   7.160   1.234   3.015 -0.4514  0.2852 -0.4136
 1021SOL    HW110062   7.074   1.241   2.963 -0.3242 -0.5252 -0.7340
 1021SOL    HW210063   7.212   1.319   3.003 -0.7398  0.3809 -1.0565
 1022SOL     OW10064   3.506   2.457   2.285  0.3225 -0.3699 -0.2044
 1022SOL    HW110065   3.495   2.439   2.187 -1.2060 -2.1812  0.2718
 1022SOL    HW210066   3.543   2.377   2.330 -2.8385 -1.0769  1.3169
 1023SOL     OW10067   7.009   1.415   0.303  0.3824 -0.6035  0.5396
 1023SOL    HW110068   7.058   1.337   0.262  1.5319  0.3109  0.1518
 1023SOL    HW210069   6.987   1.481   0.231  0.2276 -0.1338  1.0226
 1024SOL     OW10070   5.429   3.473   4.895 -0.0593  0.2095 -0.1237
 1024SOL    HW110071   5.470   3.469   4.804  0.5268 -1.3520  0.1932
 1024SOL    HW210072   5.476   3.409   4.956 -1.8326 -0.3236  0.7099
 1025SOL     OW10073   2.829   3.487   6.406 -0.0072 -0.1122 -0.1259
 1025SOL    HW110074   2.740   3.463   6.443 -0.6425  0.4779 -1.2571
 1025SOL    HW210075   2.878   3.404   6.378  0.0065 -0.4694  0.9520
 1026SOL     OW10076   1.037   1.069   3.353 -0.0934 -0.3427  0.4646
 1026SOL    HW110077   1.083   1.027   3.431 -0.1214  1.1195  1.2812
 1026SOL    HW210078   1.104   1.119   3.298 -0.6386  1.5723  1.5101
 1027SOL     OW10079   3.009   0.200   4.104 -0.1869 -0.5732  0.5285
 1027SOL    HW110080   3.050   0.278   4.056  0.9540 -0.8653  1.0304
 1027SOL    HW210081   3.077   0.156   4.162 -0.9645 -1.6369  0.6541
 1028SOL     OW10082   4.436   3.450   2.426 -0.7879  0.2265 -0.5840
 1028SOL    HW110083   4.526   3.409   2.410 -0.2113  1.7580 -1.3405
 1028SOL    HW210084   4.383   3.391   2.487  1.7117  0.5287  2.0397
 1029SOL     OW10085   6.547   4.790   5.588 -0.0950  0.3439 -0.0931
 1029SOL    HW110086   6.623   4.741   5.630  0.2196  2.1153  1.4846
 1029SOL    HW210087   6.556   4.787   5.488 -0.1127 -2.7638 -0.0501
 1030SOL     OW10088   0.605   0.670   5.847  0.0213  0.2288 -0.2733
 1030SOL    HW110089   0.675   0.742   5.845  0.3105 -0.0996 -2.7264
 1030SOL    HW210090   0.527   0.701   5.901  1.3669  1.2392  1.1354
 1031SOL     OW10091   4.268   3.226   0.843 -0.2024 -0.4095 -0.1586
 1031SOL    HW110092   4.271   3.210   0.941 -0.5203  0.0935 -0.0647
 1031SOL    HW210093   4.181   3.268   0.819  0.2995  0.4386 -0.5063
 1032SOL     OW10094   6.980   0.183   7.064 -0.0511 -0.4578 -0.2235
 1032SOL    HW110095   6.932   0.268   7.046 -0.6944 -1.2770 -2.5554
 1032SOL    HW210096   7.078   0.200   7.072 -0.3614  0.7548  1.3566
 1033SOL     OW10097   7.325   4.311   4.674  0.0801 -0.4901  0.1594
 1033SOL    HW110098   7.240   4.355   4.703  0.2626  0.4984 -0.7618
 1033SOL    HW210099   7.310   4.261   4.589  0.9541  1.6914 -1.3332
 1034SOL     OW10100   4.571   5.172   6.220  0.1349  0.2023 -0.3464
 1034SOL    HW110101   4.535   5.261   6.248  0.0426 -0.1167  0.5739
 1034SOL    HW210102   4.496   5.116   6.184  0.0525  0.2143 -0.1937
 1035SOL     OW10103   5.404   4.540   2.214 -0.3216 -0.1014 -0.0429
 1035SOL    HW110104   5.305   4.549   2.198 -0.0323 -0.7144 -2.3139
 1035SOL    HW210105   5.454   4.569   2.133  1.3631 -0.2648  0.9134
 1036SOL     OW10106   3.093   2.924   5.587  0.7215 -0.3155  0.0522
 1036SOL    HW110107   3.088   2.936   5.686 -2.1459 -1.6063  0.1061
 1036SOL    HW210108   3.076   2.829   5.564  1.3808 -0.0309 -1.7035
 1037SOL     OW10109   6.060   1.046   2.654 -0.1173  0.3127 -0.4733
 1037SOL    HW110110   6.151   1.044   2.696 -0.3719  0.8367  0.1106
 1037SOL    HW210111   6.069   1.060   2.555  0.3327  3.1820 -0.0602
 1038SOL     OW10112   3.987   1.069   2.092 -0.2248 -0.0723  0.1727
 1038SOL    HW110113   4.012   1.158   2.128 -0.4304 -0.0855  0.3493
 1038SOL    HW210114   3.887   1.062   2.085 -0.2195 -0.3783  0.3900
 1039SOL     OW10115   5.279   2.421   6.224  0.3778  0.5890  1.0751
 1039SOL    HW110116   5.346   2.495   6.217  1.3806 -0.3659  0.5846
 1039SOL    HW210117   5.301   2.363   6.302 -0.2697  0.6528  1.3120
 1040SOL     OW10118   1.883   3.251   2.984  0.5346  0.2053 -0.0344
 1040SOL    HW110119   1.917   3.234   2.892 -0.2019  0.5447 -0.3747
 1040SOL    HW210120   1.829   3.173   3.015 -0.5904  0.7691 -0.5404
 1041SOL     OW10121   7.296   2.104   3.641 -0.9395  0.3074  0.2983
 1041SOL    HW110122   7.372   2.139   3.585 -0.1752  2.2248  2.4648
 1041SOL    HW210123   7.212   2.154   3.619 -1.0153 -0.0656 -0.2770
 1042SOL     OW10124   0.606   4.499   1.856  0.1218 -0.3014  0.2407
 1042SOL    HW110125   0.604   4.434   1.933  1.3534  0.1611  0.6771
 1042SOL    HW210126   0.700   4.528   1.840 -0.0565 -0.7339 -1.7530
 1043SOL     OW10127   2.285   1.518   6.948 -0.0316  0.1388  0.0970
 1043SOL    HW110128   2.235   1.474   6.873  0.5122 -0.1731 -0.0895
 1043SOL    HW210129   2.383   1.503   6.935  0.2434  2.4867 -0.6424
 1044SOL     OW10130   0.307   7.132   5.701 -0.1158  0.2965 -0.0801
 1044SOL    HW110131   0.320   7.090   5.611 -0.7135 -0.8207  0.3423
 1044SOL    HW210132   0.375   7.204   5.715  0.2065  0.2321 -1.2760
 1045SOL     OW10133   4.230   3.846   1.563 -0.3262 -0.7632 -0.5420
 1045SOL    HW110134   4.224   3.926   1.623  0.4676 -1.8185  0.9849
 1045SOL    HW210135   4.325   3.830   1.538 -0.7351  0.1897 -2.8642
 1046SOL     OW10136   2.682   5.712   2.952  0.5533 -0.1515 -0.2717
 1046SOL    HW110137   2.614   5.672   2.890 -0.2746  0.1161  0.4575
 1046SOL    HW210138   2.673   5.811   2.952 -0.4887 -0.2158  1.4271
 1047SOL     OW10139   4.079   2.014   5.852 -0.0998  1.1381  0.2783
 1047SOL    HW110140   4.050   2.110   5.857  1.2812  1.5218  1.2909
 1047SOL    HW210141   4.075   1.983   5.757  0.2651  2.4650 -0.1841
 1048SOL     OW10142   6.015   2.933   4.530  0.0217 -0.2057  0.3324
 1048SOL    HW110143   5.989   2.938   4.434  0.2787 -1.8727  0.1564
 1048SOL    HW210144   5.937   2.901   4.583 -0.7279  2.5443  0.9928
 1049SOL     OW10145   5.969   5.645   2.772  0.5170  0.0769  0.4059
 1049SOL    HW110146   5.903   5.617   2.702  0.2664  0.0645  0.6455
 1049SOL    HW210147   5.920   5.677   2.853  0.8056  0.4652  0.4271
 1050SOL     OW10148   6.046   0.498   4.359 -0.3448 -0.2171  0.0138
 1050SOL    HW110149   6.008   0.483   4.268  1.1972 -1.7459 -0.3955
 1050SOL    HW210150   6.050   0.411   4.408 -1.5872  0.6641  1.7393
 1051SOL     OW10151   6.508   6.808   6.883  0.4418 -0.2902  0.7075
 1051SOL    HW110152   6.580   6.759   6.834 -0.5862 -1.6145  0.4866
 1051SOL    HW210153   6.540   6.833   6.974  1.3583 -0.4055  0.4170
 1052SOL     OW10154   5.334   1.077   6.730  0.0353  0.2656  0.8777
 1052SOL    HW110155   5.246   1.116   6.703  0.3276  1.0352  1.0302
 1052SOL    HW210156   5.394   1.150   6.763  0.6178 -0.3016  1.0765
 1053SOL     OW10157   3.442   2.354   0.388 -0.4274  0.8059  0.5136
 1053SOL    HW110158   3.383   2.283   0.351  0.6231 -0.0975  0.5810
 1053SOL    HW210159   3.418   2.442   0.346 -1.7386  0.4262  0.4540
 1054SOL     OW10160   5.937   2.882   7.122 -0.3660  0.4665  0.1363
 1054SOL    HW110161   5.863   2.815   7.119  1.5688 -1.7533  0.2567
 1054SOL    HW210162   5.907   2.968   7.080 -3.4401  0.0911  1.4558
 1055SOL     OW10163   4.592   6.396   4.632 -0.4459  0.0860  0.0505
 1055SOL    HW110164   4.622   6.317   4.578  0.1386  1.8631 -2.3143
 1055SOL    HW210165   4.493   6.408   4.621 -0.1096  1.2898 -1.8305
 1056SOL     OW10166   2.129   5.261   5.673  0.2214 -0.0370  0.2071
 1056SOL    HW110167   2.086   5.184   5.720  1.2967 -1.2929 -0.8499
 1056SOL    HW210168   2.205   5.295   5.729 -0.8912  0.9438  1.1595
 1057SOL     OW10169   0.348   2.611   6.845 -0.4331  0.0455  0.0864
 1057SOL    HW110170   0.423   2.657   6.795 -0.5922  0.8233  0.5543
 1057SOL    HW210171   0.351   2.638   6.941 -0.7344 -0.6779  0.2982
 1058SOL     OW10172   5.177   2.106   1.801 -0.3822 -0.6747 -0.0659
 1058SOL    HW110173   5.128   2.168   1.741  1.0042 -0.8777 -1.4477
 1058SOL    HW210174   5.168   2.012   1.766  1.0979 -0.6917 -0.4160
 1059SOL     OW10175   5.986   6.131   5.021  0.0436  0.0509  0.0097
 1059SOL    HW110176   5.954   6.217   5.062 -2.7968 -0.6589 -0.6205
 1059SOL    HW210177   6.083   6.139   4.998  0.1532  2.6056  1.2333
 1060SOL     OW10178   3.475   6.109   4.720  0.3593  0.3451  0.1403
 1060SOL    HW110179   3.494   6.023   4.672  0.2388  0.5984 -0.3622
 1060SOL    HW210180   3.377   6.117   4.738  0.3824  0.3321  0.2734
 1061SOL     OW10181   4.781   4.640   1.318 -0.2846 -0.1525  0.4081
 1061SOL    HW110182   4.769   4.725   1.268 -0.5325 -1.0584 -1.0929
 1061SOL    HW210183   4.707   4.577   1.296  0.2833 -1.0294  0.9584
 1062SOL     OW10184   2.392   6.078   3.931  0.2530  0.0695 -0.3545
 1062SOL    HW110185   2.456   6.148   3.962  0.6701 -0.8624  0.9043
 1062SOL    HW210186   2.303   6.119   3.915  0.9033  1.1899 -1.1726
 1063SOL     OW10187   3.718   5.655   3.070  0.3257 -0.0287  0.1054
 1063SOL    HW110188   3.778   5.659   3.149 -0.0979 -1.4616  0.5210
 1063SOL    HW210189   3.655   5.733   3.071  1.2014  0.6718  0.4577
 1064SOL     OW10190   1.064   3.543   3.726  0.3067 -0.3379  0.1343
 1064SOL    HW110191   1.148   3.549   3.672  0.2524 -3.1824 -0.3109
 1064SOL    HW210192   1.028   3.635   3.741  2.7018  0.8093 -0.9103
 1065SOL     OW10193   2.635   1.823   2.150  0.2697  0.2115  0.4272
 1065SOL    HW110194   2.723   1.834   2.197  0.8326 -0.0531 -0.5392
 1065SOL    HW210195   2.638   1.740   2.094 -0.5218  0.3084  0.2415
 1066SOL     OW10196   1.040   5.984   6.739  0.1118  0.3220 -0.4436
 1066SOL    HW110197   0.957   6.025   6.701 -0.4143  1.0443  1.4012
 1066SOL    HW210198   1.027   5.886   6.752 -0.8945  0.6180  0.9097
 1067SOL     OW10199   5.306   5.059   5.808  0.5098  0.2976 -0.0409
 1067SOL    HW110200   5.341   5.117   5.881  2.2289  0.5972 -1.0680
 1067SOL    HW210201   5.340   4.966   5.821 -2.2318 -0.5407  1.5980
 1068SOL     OW10202   2.167   7.316   2.600  0.0601 -0.0483  0.3593
 1068SOL    HW110203   2.258   7.354   2.617 -0.5261  1.2651  0.5554
 1068SOL    HW210204   2.099   7.365   2.654 -0.8703 -0.5389 -0.3456
 1069SOL     OW10205   6.995   4.099   1.760 -0.1180 -0.2667 -0.0035
 1069SOL    HW110206   6.995   4.134   1.854 -0.1123 -1.7881  0.5694
 1069SOL    HW210207   7.083   4.121   1.717  0.1581 -0.1875  0.5837
 1070SOL     OW10208   1.160   7.272   2.888 -0.7290  0.0475 -0.4796
 1070SOL    HW110209   1.117   7.300   2.801  1.7589  1.6362 -1.2587
 1070SOL    HW210210   1.109   7.312   2.964 -2.2120 -0.3163 -1.2626
 1071SOL     OW10211   3.388   2.850   5.483 -0.2776 -0.1208  0.0522
 1071SOL    HW110212   3.381   2.757   5.447  0.7138 -0.5776  1.0216
 1071SOL    HW210213   3.300   2.876   5.525 -0.7717 -0.3534 -0.8325
 1072SOL     OW10214   1.001   6.596   6.051 -0.0784  0.1350  0.1849
 1072SOL    HW110215   1.025   6.668   5.986 -0.3921 -1.2542 -1.4982
 1072SOL    HW210216   0.905   6.604   6.077 -0.0003  0.5793  0.3362
 1073SOL     OW10217   4.027   4.082   3.778  0.3366 -0.4251  0.0775
 1073SOL    HW110218   4.119   4.101   3.745  0.5290 -0.3513  0.6453
 1073SOL    HW210219   3.960   4.111   3.709  0.7337 -0.4577 -0.3242
 1074SOL     OW10220   5.132   1.927   3.581  0.4905  0.2206 -0.2456
 1074SOL    HW110221   5.094   1.940   3.489  0.9791  0.2498 -0.4423
 1074SOL    HW210222   5.199   1.999   3.600  1.5094 -0.6680 -0.4473
 1075SOL     OW10223   7.001   3.024   5.917 -0.2242  0.3268  0.4108
 1075SOL    HW110224   6.971   3.084   5.843 -1.3972 -1.0753 -0.2671
 1075SOL    HW210225   7.031   2.936   5.880  2.4053  0.7934  1.3181
 1076SOL     OW10226   2.716   5.220   4.035 -0.6191  0.3783  0.9149
 1076SOL    HW110227   2.735   5.308   4.078 -3.2170  1.3863  0.0995
 1076SOL    HW210228   2.688   5.153   4.104 -1.4678  1.0245  1.1983
 1077SOL     OW10229   4.247   0.752   0.691  0.2746  0.3477 -0.0136
 1077SOL    HW110230   4.320   0.700   0.736  0.2678 -0.2672 -0.6983
 1077SOL    HW210231   4.270   0.850   0.691  0.9174  0.1957  0.1126
 1078SOL     OW10232   7.215   4.398   6.296  0.2382 -0.3777  0.0116
 1078SOL    HW110233   7.253   4.335   6.228 -0.9013 -0.8091 -0.2431
 1078SOL    HW210234   7.158   4.346   6.360  0.3760  0.1992  0.6049
 1079SOL     OW10235   3.117   3.280   5.971  0.2943 -0.0023  0.4226
 1079SOL    HW110236   3.156   3.314   5.885 -1.1248 -0.3933 -0.3950
 1079SOL    HW210237   3.049   3.345   6.004 -0.1213 -0.4987  0.5480
 1080SOL     OW10238   4.674   1.727   7.218  0.1004  0.3516  0.0145
 1080SOL    HW110239   4.655   1.797   7.287 -1.6257 -1.4247  1.3960
 1080SOL    HW210240   4.590   1.677   7.197  0.8401  0.1376 -2.6016
 1081SOL     OW10241   0.454   4.253   1.400 -0.1325  0.1970  0.5147
 1081SOL    HW110242   0.473   4.169   1.349 -1.4483  0.3820 -0.3119
 1081SOL    HW210243   0.521   4.263   1.474  0.9746 -0.7750 -0.3313
 1082SOL     OW10244   5.429   4.661   1.607 -0.2723 -0.1634  0.5528
 1082SOL    HW110245   5.519   4.617   1.605  0.0621  0.5467 -0.3853
 1082SOL    HW210246   5.384   4.649   1.519 -1.2304 -0.7692  1.1166
 1083SOL     OW10247   6.882   5.524   4.151 -0.1950 -0.0244 -0.2549
 1083SOL    HW110248   6.862   5.467   4.071  1.1504 -1.9792  0.7595
 1083SOL    HW210249   6.967   5.492   4.193 -0.1402  1.9092  1.1276
 1084SOL     OW10250   4.683   4.934   6.973  0.0132 -0.4117 -0.1431
 1084SOL    HW110251   4.775   4.904   6.949 -0.5808 -2.0090 -0.4736
 1084SOL    HW210252   4.686   4.984   7.060  1.3699  0.7157 -0.8138
 1085SOL     OW10253   2.479   5.816   0.554 -0.1876 -0.4350  0.1236
 1085SOL    HW110254   2.509   5.744   0.617  0.2899  0.1534  0.5777
 1085SOL    HW210255   2.395   5.858   0.589  1.7249  1.9693  2.0145
 1086SOL     OW10256   6.900   2.381   1.206  0.6852 -0.0270  0.1133
 1086SOL    HW110257   6.909   2.291   1.162 -0.9401  0.1491 -0.6076
 1086SOL    HW210258   6.905   2.370   1.305 -0.7870 -1.0860  0.0893
 1087SOL     OW10259   4.041   7.246   5.799 -0.3968 -0.4280 -0.3813
 1087SOL    HW110260   4.087   7.158   5.812 -1.2376 -0.7487  0.4283
 1087SOL    HW210261   4.082   7.315   5.860 -0.6441 -0.5817 -0.0452
 1088SOL     OW10262   0.588   5.696   4.609  0.2283 -0.4459 -0.6766
 1088SOL    HW110263   0.518   5.699   4.680 -1.8518 -1.7873 -2.6193
 1088SOL    HW210264   0.611   5.789   4.580  1.1374  0.1237  1.7131
 1089SOL     OW10265   1.875   4.260   1.172 -0.2237 -0.1207 -0.4104
 1089SOL    HW110266   1.777   4.279   1.176 -0.4121 -1.2447  0.5252
 1089SOL    HW210267   1.892   4.183   1.111 -0.0898 -1.0011  0.7298
 1090SOL     OW10268   6.075   5.148   1.240  0.1613  0.0701  0.3660
 1090SOL    HW110269   6.163   5.172   1.282  0.0115  0.4207  0.4856
 1090SOL    HW210270   6.035   5.230   1.200 -1.4309  0.5315  2.7848
 1091SOL     OW10271   2.690   1.904   1.601 -0.0717  0.4029  0.2296
 1091SOL    HW110272   2.774   1.851   1.612 -0.2921 -0.2152 -0.9856
 1091SOL    HW210273   2.684   1.938   1.507 -0.3820  1.8290  0.7538
 1092SOL     OW10274   5.912   0.397   6.570 -0.2864  0.2256 -0.2094
 1092SOL    HW110275   5.954   0.314   6.607  1.4427  0.8625 -0.6896
 1092SOL    HW210276   5.870   0.449   6.645 -1.3509 -1.0525  0.0944
 1093SOL     OW10277   0.428   2.143   7.250 -0.1323 -0.1373  0.0940
 1093SOL    HW110278   0.394   2.075   7.314  1.1714 -0.6020  0.2972
 1093SOL    HW210279   0.459   2.224   7.300 -1.0190  0.3383 -0.1010
 1094SOL     OW10280   1.146   2.251   0.670 -0.1803 -0.2656 -0.5348
 1094SOL    HW110281   1.214   2.179   0.682 -0.9979 -1.2231 -1.5582
 1094SOL    HW210282   1.176   2.314   0.598 -0.9901 -1.4774 -1.9768
 1095SOL     OW10283   2.760   3.801   7.025 -0.2441  0.3003 -0.2157
 1095SOL    HW110284   2.767   3.893   6.986  0.1636  0.9470  1.3555
 1095SOL    HW210285   2.804   3.799   7.115  0.4651 -1.6420 -0.5755
 1096SOL     OW10286   6.939   4.442   6.160 -0.1587  0.3726  0.3161
 1096SOL    HW110287   6.909   4.346   6.158 -0.1434  0.3952 -1.8060
 1096SOL    HW210288   7.012   4.452   6.227 -1.0682 -0.8121  1.5291
 1097SOL     OW10289   3.955   5.571   2.964 -0.0074  0.4660 -0.0667
 1097SOL    HW110290   3.869   5.610   2.998 -2.4148 -1.4311 -3.6039
 1097SOL    HW210291   3.957   5.473   2.984  2.4127  0.8782  1.9202
 1098SOL     OW10292   0.441   2.596   0.567 -0.7468 -0.4066  0.3252
 1098SOL    HW110293   0.485   2.506   0.572  1.1950  0.5943  2.2759
 1098SOL    HW210294   0.481   2.648   0.491  0.0636 -0.2301  0.8599
 1099SOL     OW10295   5.719   3.917   3.696 -0.2190 -0.1424  0.2672
 1099SOL    HW110296   5.758   3.959   3.778  0.9656 -2.0607  0.7071
 1099SOL    HW210297   5.780   3.932   3.619  0.9520 -2.2794  0.7420
 1100SOL     OW10298   6.123   3.758   3.710  0.6444  0.5284 -0.2686
 1100SOL    HW110299   6.123   3.849   3.751  0.5640  0.2430  0.3807
 1100SOL    HW210300   6.213   3.738   3.673  0.4014  1.2373 -1.2407
 1101SOL     OW10301   6.487   4.532   0.642 -0.3065  0.1823  0.1025
 1101SOL    HW110302   6.434   4.603   0.597  0.3741  0.0005 -0.9848
 1101SOL    HW210303   6.426   4.458   0.671 -0.4796 -0.7556 -2.5280
 1102SOL     OW10304   3.911   6.961   5.942  0.2737  0.2551  0.3707
 1102SOL    HW110305   3.830   6.941   5.886 -0.0414  1.1619  0.4979
 1102SOL    HW210306   3.989   6.980   5.882 -0.3974  2.5995  0.2236
 1103SOL     OW10307   6.511   3.979   7.330  0.3270 -0.1158  0.2492
 1103SOL    HW110308   6.466   3.897   7.365  2.8662 -1.3614  0.7016
 1103SOL    HW210309   6.483   4.058   7.385 -2.2840 -0.5954 -0.3155
 1104SOL     OW10310   3.998   2.314   5.723  0.6484 -0.0111  0.4640
 1104SOL    HW110311   3.920   2.273   5.676  0.5488 -1.6046  1.9736
 1104SOL    HW210312   3.980   2.411   5.738 -0.2817  0.0187 -0.7537
 1105SOL     OW10313   5.349   7.340   7.202 -0.1196  0.8666  0.3166
 1105SOL    HW110314   5.436   7.348   7.250 -0.6766  0.5756  1.3988
 1105SOL    HW210315   5.343   7.250   7.159  1.6586  2.2150 -2.8979
 1106SOL     OW10316   2.170   7.131   3.020  0.0920  0.3422  0.0492
 1106SOL    HW110317   2.269   7.135   3.008  0.2432  0.1737  1.2416
 1106SOL    HW210318   2.145   7.172   3.107 -1.1020  2.4119 -1.2362
 1107SOL     OW10319   0.383   6.157   6.926  0.1004  0.4363  0.2575
 1107SOL    HW110320   0.304   6.177   6.983  0.3886  3.0669 -0.2340
 1107SOL    HW210321   0.416   6.064   6.946  0.3274  1.3381  4.4826
 1108SOL     OW10322   5.419   2.237   6.407  0.0040  0.1122 -0.7615
 1108SOL    HW110323   5.513   2.232   6.376 -0.4085  0.1369 -2.0468
 1108SOL    HW210324   5.416   2.227   6.506  1.5067  1.8506 -0.5038
 1109SOL     OW10325   5.659   6.051   6.705 -0.4728 -0.7930  0.6583
 1109SOL    HW110326   5.632   6.124   6.643  1.3955 -1.3590 -0.8766
 1109SOL    HW210327   5.580   5.993   6.724 -1.5841  0.6736  0.5836
 1110SOL     OW10328   3.775   6.848   3.543  0.0121 -0.1887 -0.5206
 1110SOL    HW110329   3.693   6.791   3.538  0.2582 -0.5304 -0.7056
 1110SOL    HW210330   3.843   6.805   3.602 -0.2530  0.4945  0.2795
 1111SOL     OW10331   2.964   1.842   0.849 -0.2307  0.3578 -0.1518
 1111SOL    HW110332   2.949   1.937   0.823 -2.6412  0.6500  2.0590
 1111SOL    HW210333   2.878   1.802   0.882  0.9561 -2.2881 -0.1199
 1112SOL     OW10334   3.201   7.203   1.105  0.8605  0.4057 -0.3334
 1112SOL    HW110335   3.209   7.120   1.049  0.4711  0.5087 -0.5414
 1112SOL    HW210336   3.107   7.214   1.135  1.2726 -0.2232  1.2307
 1113SOL     OW10337   6.698   0.194   0.821 -0.3261 -0.0437  0.4758
 1113SOL    HW110338   6.688   0.175   0.724  2.8128  0.4738 -0.0224
 1113SOL    HW210339   6.704   0.108   0.872 -2.0031 -0.3134  0.2508
 1114SOL     OW10340   4.704   1.309   3.397 -0.3439 -0.4268  0.1850
 1114SOL    HW110341   4.662   1.245   3.462 -0.6027  0.1448  0.5804
 1114SOL    HW210342   4.722   1.261   3.311 -0.7667 -0.9688  0.3932
 1115SOL     OW10343   5.613   6.631   6.410 -0.3627 -0.9450  0.1092
 1115SOL    HW110344   5.684   6.566   6.439 -1.0902 -2.0005 -0.4199
 1115SOL    HW210345   5.547   6.583   6.351 -0.1230  0.6124 -1.4600
 1116SOL     OW10346   5.840   0.980   1.514  0.2875 -0.0249 -0.3235
 1116SOL    HW110347   5.932   0.941   1.518  0.9264  1.5162  0.4590
 1116SOL    HW210348   5.802   0.986   1.607  0.7100  2.3355 -0.2583
 1117SOL     OW10349   1.017   5.932   0.532 -0.0069  0.1563 -0.4387
 1117SOL    HW110350   1.042   5.848   0.485  0.7138 -0.7340  1.4877
 1117SOL    HW210351   0.950   5.982   0.477  1.0055 -0.7109 -2.5082
 1118SOL     OW10352   2.629   0.443   1.149 -0.0010 -0.0400  0.4385
 1118SOL    HW110353   2.679   0.396   1.222  1.2039  1.3985  0.5551
 1118SOL    HW210354   2.531   0.444   1.172  0.3360  0.2194  1.9559
 1119SOL     OW10355   3.850   2.552   2.895  0.1151 -0.1321  0.0166
 1119SOL    HW110356   3.947   2.531   2.905  0.2785  0.9491  0.7489
 1119SOL    HW210357   3.796   2.484   2.945  0.5556  0.0465  0.7412
 1120SOL     OW10358   5.403   4.216   2.609 -0.3865 -0.1903 -0.2579
 1120SOL    HW110359   5.417   4.251   2.516  1.6928 -2.6637 -0.9282
 1120SOL    HW210360   5.366   4.123   2.604 -1.2246  0.0476  1.4007
 1121SOL     OW10361   5.867   6.354   5.181  0.2136 -0.1249  0.1513
 1121SOL    HW110362   5.785   6.396   5.145  0.5697  0.1884 -0.3008
 1121SOL    HW210363   5.929   6.424   5.217  0.0462 -0.4001  0.9873
 1122SOL     OW10364   4.190   3.612   6.467 -0.4744  0.1261  0.3357
 1122SOL    HW110365   4.257   3.577   6.533  0.9352  1.7110 -0.2094
 1122SOL    HW210366   4.112   3.650   6.517 -0.7184 -1.2046  0.9970
 1123SOL     OW10367   5.750   2.779   4.484 -0.2277 -0.6498  0.1964
 1123SOL    HW110368   5.774   2.699   4.429  0.4840  1.2472 -2.3687
 1123SOL    HW210369   5.653   2.801   4.472 -0.4640 -1.1846  1.0338
 1124SOL     OW10370   0.070   4.253   6.614  0.1856 -0.5613 -0.1057
 1124SOL    HW110371   0.042   4.323   6.549  1.3763  0.7524  0.7729
 1124SOL    HW210372   0.170   4.254   6.622  0.1798 -2.0598  0.2489
 1125SOL     OW10373   1.788   2.121   6.931  0.5841  0.5613 -0.2465
 1125SOL    HW110374   1.730   2.179   6.989  0.4045 -0.3605  0.5043
 1125SOL    HW210375   1.842   2.059   6.988  1.3939  0.5583 -1.0070
 1126SOL     OW10376   5.422   3.152   0.130 -0.0721 -0.2985  0.5872
 1126SOL    HW110377   5.521   3.146   0.115  0.1123 -4.4177  2.7171
 1126SOL    HW210378   5.374   3.099   0.060 -0.4896 -1.6560  1.8714
 1127SOL     OW10379   1.094   3.582   2.934  0.2126 -0.3938  0.1197
 1127SOL    HW110380   1.041   3.583   2.849  2.5211  0.5340 -1.3586
 1127SOL    HW210381   1.191   3.573   2.913  0.9030  0.7487  2.6190
 1128SOL     OW10382   1.042   3.249   0.474  0.2224 -0.6402 -0.1010
 1128SOL    HW110383   0.998   3.229   0.561 -1.0979  1.2042 -0.3202
 1128SOL    HW210384   1.041   3.348   0.457 -0.7729 -1.0745 -2.8248
 1129SOL     OW10385   3.991   0.671   3.331  0.0124  0.5187 -0.2108
 1129SOL    HW110386   4.043   0.737   3.277  0.3052 -0.1172 -0.7216
 1129SOL    HW210387   4.016   0.578   3.302 -0.1254  0.1837  0.7498
 1130SOL     OW10388   4.041   0.154   0.435  0.0004 -1.0752 -0.2268
 1130SOL    HW110389   4.070   0.067   0.396 -0.3785 -1.1970 -0.2335
 1130SOL    HW210390   3.983   0.138   0.515 -0.1750 -0.8294 -0.3040
 1131SOL     OW10391   5.477   0.129   2.615  0.1200  0.2391 -0.6695
 1131SOL    HW110392   5.544   0.065   2.652  1.4339  2.1138  0.2614
 1131SOL    HW210393   5.524   0.199   2.561 -1.3343  0.2055 -2.0199
 1132SOL     OW10394   4.437   2.849   2.921 -0.2525  0.4851 -0.0589
 1132SOL    HW110395   4.384   2.814   2.843 -2.5437  1.5386  0.9782
 1132SOL    HW210396   4.530   2.871   2.890 -0.2059 -1.9393 -1.7908
 1133SOL     OW10397   6.971   1.335   7.016 -0.0339 -0.6916  0.3500
 1133SOL    HW110398   7.024   1.407   6.973 -1.2754 -0.3788 -0.6775
 1133SOL    HW210399   7.031   1.279   7.073  1.2168  0.1981 -0.0774
 1134SOL     OW10400   6.841   5.405   7.344 -0.0455  0.0534 -0.2052
 1134SOL    HW110401   6.933   5.410   7.306 -0.0750 -0.6067 -0.3705
 1134SOL    HW210402   6.812   5.310   7.349 -0.9576  0.2946 -0.7226
 1135SOL     OW10403   0.108   4.422   2.380  0.3168  0.3021 -0.4074
 1135SOL    HW110404   0.030   4.360   2.371 -0.7859  1.6112 -0.1530
 1135SOL    HW210405   0.139   4.422   2.475  0.5875 -0.1698 -0.4942
 1136SOL     OW10406   5.346   3.647   1.339 -0.1398  0.0001  0.2384
 1136SOL    HW110407   5.444   3.638   1.318 -0.3921 -0.4765 -0.7629
 1136SOL    HW210408   5.334   3.714   1.412  0.8512  0.9679 -0.4645
 1137SOL     OW10409   6.362   2.727   6.555  0.2504  0.4815 -0.1243
 1137SOL    HW110410   6.428   2.669   6.602 -0.3665  0.0836  0.2577
 1137SOL    HW210411   6.271   2.711   6.592 -0.0145  1.2689 -0.4220
 1138SOL     OW10412   6.879   5.439   0.429  0.4232 -0.3539 -0.1692
 1138SOL    HW110413   6.817   5.430   0.507  2.5523 -0.6710  1.5123
 1138SOL    HW210414   6.932   5.355   0.418 -0.6331 -0.7589 -2.6960
 1139SOL     OW10415   1.615   5.863   5.122 -0.4145  0.4393 -0.1047
 1139SOL    HW110416   1.571   5.774   5.106 -0.8854  0.7257 -0.4042
 1139SOL    HW210417   1.658   5.894   5.037 -3.7963  2.4481 -1.1850
 1140SOL     OW10418   1.827   1.372   0.771 -0.3145  0.1844 -0.6015
 1140SOL    HW110419   1.833   1.354   0.870  0.8991 -0.7311 -0.8262
 1140SOL    HW210420   1.918   1.394   0.736 -0.6863  0.1843 -1.5877
 1141SOL     OW10421   1.852   0.469   3.054  0.2363  0.3883 -0.3721
 1141SOL    HW110422   1.944   0.430   3.059  0.9987  2.0645 -1.1782
 1141SOL    HW210423   1.790   0.415   3.112  1.4349 -1.5203 -0.8231
 1142SOL     OW10424   0.008   1.948   3.371 -1.0092 -0.2624  0.0133
 1142SOL    HW110425   0.058   1.873   3.413  0.0371  0.0874 -0.5840
 1142SOL    HW210426  -0.086   1.949   3.405 -0.8691 -1.4870  0.4519
 1143SOL     OW10427   1.524   1.908   1.679  0.3202 -0.2722 -0.3619
 1143SOL    HW110428   1.537   1.826   1.622 -0.4543 -0.3607 -0.4132
 1143SOL    HW210429   1.507   1.987   1.620  2.3134  0.1659 -0.3643
 1144SOL     OW10430   2.002   1.513   0.240 -0.4081  0.1987  0.4234
 1144SOL    HW110431   1.972   1.466   0.323 -0.1832  2.2070  1.6856
 1144SOL    HW210432   2.101   1.527   0.245 -0.3164 -0.1414 -0.4387
 1145SOL     OW10433   3.587   7.068   7.179  0.1649  0.5760 -0.2085
 1145SOL    HW110434   3.511   7.125   7.211  0.6793  0.3382  1.5072
 1145SOL    HW210435   3.551   6.990   7.128 -0.7610  0.3095  0.8369
 1146SOL     OW10436   2.394   3.614   1.907 -0.1519 -0.3052  0.1903
 1146SOL    HW110437   2.405   3.693   1.847 -1.9574 -0.0961  0.1167
 1146SOL    HW210438   2.461   3.544   1.882  1.0686  0.9445 -0.1222
 1147SOL     OW10439   7.002   5.229   0.518  0.1879 -0.6946  0.5372
 1147SOL    HW110440   7.075   5.243   0.585  1.0984 -1.3651 -0.2988
 1147SOL    HW210441   6.985   5.131   0.506  0.0658 -0.5880 -0.2329
 1148SOL     OW10442   5.627   3.785   0.377 -0.5106 -0.1416  0.0902
 1148SOL    HW110443   5.584   3.699   0.349  0.8587 -1.4684  1.9302
 1148SOL    HW210444   5.586   3.815   0.463 -0.8147  0.9538 -0.4266
 1149SOL     OW10445   0.015   0.569   1.142  0.6465  0.0009 -0.0297
 1149SOL    HW110446  -0.063   0.632   1.149  0.5402 -0.1763  0.3625
 1149SOL    HW210447  -0.002   0.504   1.068  0.2014 -0.3412  0.3705
 1150SOL     OW10448   5.472   0.768   1.613 -0.3228 -0.3427 -0.6914
 1150SOL    HW110449   5.464   0.804   1.706 -1.2798 -1.2072 -0.4223
 1150SOL    HW210450   5.548   0.703   1.609 -1.5301 -1.8451  0.0227
 1151SOL     OW10451   2.474   7.100   3.904 -0.0448 -0.1755  0.1313
 1151SOL    HW110452   2.526   7.055   3.976  1.0390 -1.0710 -1.1765
 1151SOL    HW210453   2.537   7.145   3.840 -1.0582  2.1044  0.6908
 1152SOL     OW10454   0.727   4.091   5.446  0.5184 -0.0541 -0.1864
 1152SOL    HW110455   0.744   4.181   5.486  0.2902  0.0734 -0.3710
 1152SOL    HW210456   0.733   4.098   5.346  0.4693 -0.2367 -0.2022
 1153SOL     OW10457   5.016   6.718   6.942  0.0154 -0.6446  0.4121
 1153SOL    HW110458   4.973   6.631   6.918  0.5086 -0.5206 -1.0085
 1153SOL    HW210459   5.000   6.784   6.868 -0.4948  0.5353  1.5451
 1154SOL     OW10460   5.248   0.922   7.154 -0.2518 -0.4949 -0.4640
 1154SOL    HW110461   5.173   0.884   7.101  0.2867 -0.9319 -0.9221
 1154SOL    HW210462   5.333   0.914   7.102 -0.0123  0.6626 -0.2515
 1155SOL     OW10463   3.765   1.606   4.428  0.1491 -0.0483 -0.1595
 1155SOL    HW110464   3.695   1.601   4.357 -1.6641  2.4135  1.3652
 1155SOL    HW210465   3.845   1.653   4.392 -1.4675  2.8556 -0.1374
 1156SOL     OW10466   3.104   1.045   1.257 -0.0403 -0.1266  0.3896
 1156SOL    HW110467   3.203   1.055   1.247 -0.1280 -0.5584 -1.0112
 1156SOL    HW210468   3.057   1.119   1.208 -0.4285 -0.7175 -0.1493
 1157SOL     OW10469   2.375   7.073   2.098 -0.2611 -0.0879  0.1360
 1157SOL    HW110470   2.304   7.009   2.124  0.0381 -0.1174  0.9014
 1157SOL    HW210471   2.456   7.023   2.068 -0.4389 -0.0571 -0.4005
 1158SOL     OW10472   5.465   5.345   1.857 -0.2065  0.7603  0.1222
 1158SOL    HW110473   5.497   5.400   1.780 -0.2200  0.5930 -0.0045
 1158SOL    HW210474   5.515   5.371   1.940 -0.3915  1.1345  0.1144
 1159SOL     OW10475   4.915   4.811   0.366 -0.5918  0.3952 -0.4444
 1159SOL    HW110476   4.915   4.711   0.364  0.4550  0.3861 -0.1022
 1159SOL    HW210477   5.004   4.845   0.336 -0.0336  1.1513  1.9697
 1160SOL     OW10478   3.568   5.843   4.091 -0.3399  0.2914 -0.1734
 1160SOL    HW110479   3.667   5.831   4.102 -0.3451  0.5049  0.1223
 1160SOL    HW210480   3.547   5.858   3.994 -0.2420 -1.1128 -0.4131
 1161SOL     OW10481   6.817   2.085   4.603  0.6433 -0.2053  0.0736
 1161SOL    HW110482   6.782   2.084   4.696 -1.0699  0.6802 -0.5361
 1161SOL    HW210483   6.899   2.142   4.598  1.8239 -1.7456  1.3826
 1162SOL     OW10484   5.964   0.799   0.871  0.1354 -1.3264 -0.0522
 1162SOL    HW110485   5.934   0.809   0.776  1.1347 -0.6648 -0.3121
 1162SOL    HW210486   5.977   0.702   0.892  0.9864 -1.4082 -0.9422
 1163SOL     OW10487   1.455   5.448   0.559 -0.2974 -0.1977 -0.1832
 1163SOL    HW110488   1.447   5.547   0.553  1.1966  0.0980  2.0721
 1163SOL    HW210489   1.376   5.411   0.609 -0.7253 -0.1166 -0.8002
 1164SOL     OW10490   6.825   2.469   7.283 -0.3939 -0.7009 -0.0742
 1164SOL    HW110491   6.913   2.512   7.304 -0.6807 -0.7414  1.2734
 1164SOL    HW210492   6.784   2.515   7.204  0.5815 -0.3235 -0.3744
 1165SOL     OW10493   4.589   6.103   2.034 -0.6397  0.1755  0.9156
 1165SOL    HW110494   4.628   6.181   1.984  0.3647  0.5907  2.2809
 1165SOL    HW210495   4.497   6.084   2.001  1.3500 -2.0564 -3.7952
 1166SOL     OW10496   6.307   4.379   0.798  0.1330  0.4202 -0.3193
 1166SOL    HW110497   6.345   4.359   0.889  1.2290  1.4259 -0.5513
 1166SOL    HW210498   6.222   4.431   0.809 -0.0406  0.0572  0.1312
 1167SOL     OW10499   7.267   2.369   6.288 -0.3691 -0.1146  0.4463
 1167SOL    HW110500   7.238   2.326   6.202  0.3272  0.7097 -0.2148
 1167SOL    HW210501   7.203   2.442   6.311  0.8772  1.3808 -0.7537
 1168SOL     OW10502   4.033   3.664   0.944  0.1183  0.6654  0.2652
 1168SOL    HW110503   4.064   3.657   1.039 -0.5094 -0.0496  0.4253
 1168SOL    HW210504   4.030   3.573   0.903 -1.0560  0.8031  0.0304
 1169SOL     OW10505   7.258   4.232   0.323 -0.3040 -0.3829  0.6163
 1169SOL    HW110506   7.209   4.202   0.242  0.3971 -0.2937  0.1571
 1169SOL    HW210507   7.347   4.269   0.297 -0.9120  1.5754  1.2167
 1170SOL     OW10508   4.415   4.318   6.380  0.0580 -0.4018  0.0723
 1170SOL    HW110509   4.493   4.256   6.371  0.3764  0.2816 -1.9926
 1170SOL    HW210510   4.444   4.400   6.430  0.1481 -0.9852  1.0001
 1171SOL     OW10511   6.172   3.259   2.828  0.5825 -0.1045 -0.0148
 1171SOL    HW110512   6.178   3.356   2.805  1.7022 -0.0624  0.4293
 1171SOL    HW210513   6.242   3.208   2.777  0.3213 -0.6026  0.1198
 1172SOL     OW10514   2.471   2.155   0.772 -0.3998 -0.4686 -0.5666
 1172SOL    HW110515   2.390   2.213   0.778  0.7318  1.1912 -1.0415
 1172SOL    HW210516   2.492   2.137   0.676 -0.2346 -0.9300 -0.4456
 1173SOL     OW10517   7.262   5.923   6.828 -0.0397 -0.1988  0.0044
 1173SOL    HW110518   7.293   5.906   6.735 -0.5941  0.2089 -0.2544
 1173SOL    HW210519   7.247   6.021   6.841 -1.2887 -0.3965  0.1110
 1174SOL     OW10520   6.738   1.046   6.721  0.0673  0.1450 -0.1884
 1174SOL    HW110521   6.657   1.099   6.748 -0.3377  0.7072 -2.4268
 1174SOL    HW210522   6.809   1.056   6.792 -0.2269  3.1756 -0.2404
 1175SOL     OW10523   0.425   6.309   6.695  0.3985  0.3253 -0.0396
 1175SOL    HW110524   0.336   6.344   6.666  0.4160 -0.8083 -1.5279
 1175SOL    HW210525   0.415   6.258   6.781 -0.4783 -0.2397 -0.4775
 1176SOL     OW10526   0.368   0.366   2.298 -0.4454 -0.2223 -0.0245
 1176SOL    HW110527   0.447   0.421   2.270 -0.0076 -1.4550 -1.2865
 1176SOL    HW210528   0.305   0.357   2.221 -0.9796 -0.6572  0.4618
 1177SOL     OW10529   2.564   5.952   1.692  0.0603 -0.1835  0.0894
 1177SOL    HW110530   2.514   5.891   1.754  1.4240 -1.7004 -0.2524
 1177SOL    HW210531   2.519   6.041   1.689 -3.3078 -1.8471 -1.1704
 1178SOL     OW10532   4.942   1.009   3.170 -0.1187 -0.2903  0.4338
 1178SOL    HW110533   5.041   1.017   3.162 -0.2261 -0.3929 -1.1404
 1178SOL    HW210534   4.918   0.976   3.261  1.3197 -0.8867  0.5990
 1179SOL     OW10535   0.966   0.156   0.898  0.3643 -0.2699 -0.3207
 1179SOL    HW110536   0.877   0.145   0.942 -0.8380  0.6087 -2.4850
 1179SOL    HW210537   0.984   0.077   0.839  0.2031  0.4027 -1.2759
 1180SOL     OW10538   0.929   2.976   1.055  0.4760  0.2357 -0.1272
 1180SOL    HW110539   0.911   3.028   1.139  0.4813  0.1545 -0.0756
 1180SOL    HW210540   1.027   2.959   1.047  0.4275 -0.1291  0.0700
 1181SOL     OW10541   1.062   2.542   5.962  0.6090  0.5345 -0.1751
 1181SOL    HW110542   1.014   2.597   5.895 -0.3920  0.4014  0.4258
 1181SOL    HW210543   1.109   2.603   6.027 -0.8201  0.7175  0.7250
 1182SOL     OW10544   1.211   5.419   0.699 -0.2810 -0.2806 -0.0482
 1182SOL    HW110545   1.151   5.428   0.620 -0.0997  0.6622 -0.0825
 1182SOL    HW210546   1.200   5.498   0.759 -1.0707 -1.3970  1.3325
 1183SOL     OW10547   5.709   1.111   0.158  0.5312 -0.2261  0.1755
 1183SOL    HW110548   5.686   1.162   0.241  1.5305  0.4346  0.0467
 1183SOL    HW210549   5.771   1.036   0.181  0.8337 -0.0228  0.0157
 1184SOL     OW10550   1.576   0.358   6.420 -0.1543  0.5201 -0.6606
 1184SOL    HW110551   1.491   0.308   6.400  1.1952 -2.1803  0.0412
 1184SOL    HW210552   1.561   0.418   6.499 -1.5890  0.5803 -0.9620
 1185SOL     OW10553   5.777   3.093   6.977 -0.4921 -0.1468 -0.2140
 1185SOL    HW110554   5.713   3.164   7.006  1.8799  0.9925  2.5315
 1185SOL    HW210555   5.840   3.131   6.909  0.5152  0.2987  0.9483
 1186SOL     OW10556   2.596   3.804   5.371 -0.2410  0.5530  0.0681
 1186SOL    HW110557   2.512   3.849   5.340 -0.6919 -0.5744 -0.3794
 1186SOL    HW210558   2.582   3.705   5.372  0.5136  0.4439  1.6796
 1187SOL     OW10559   0.130   4.038   5.047  0.5574 -0.6294  0.0863
 1187SOL    HW110560   0.050   4.069   4.995  0.4336 -1.0475  0.0186
 1187SOL    HW210561   0.121   4.065   5.142  0.8040  0.1800 -0.1188
 1188SOL     OW10562   1.417   6.105   6.436 -0.8632  0.5214  0.2929
 1188SOL    HW110563   1.342   6.043   6.455  0.5593 -1.2499  0.3201
 1188SOL    HW210564   1.402   6.150   6.348 -1.9773  0.2359  0.3311
 1189SOL     OW10565   0.565   0.565   2.550  0.5174  0.5155  0.0911
 1189SOL    HW110566   0.538   0.660   2.539 -0.0396  0.2943 -0.5261
 1189SOL    HW210567   0.640   0.558   2.616  0.7669  1.4101 -0.0975
 1190SOL     OW10568   4.706   4.698   2.913  0.4795 -0.3509  0.6583
 1190SOL    HW110569   4.709   4.789   2.955 -0.5675 -0.2830  0.5959
 1190SOL    HW210570   4.668   4.632   2.978 -2.1236 -0.0424 -0.5224
 1191SOL     OW10571   2.571   3.335   4.282  0.1703  0.3159  0.3512
 1191SOL    HW110572   2.635   3.363   4.354  1.9069 -1.7672 -0.3247
 1191SOL    HW210573   2.575   3.236   4.270  0.2735  0.6353 -2.9094
 1192SOL     OW10574   1.496   2.107   3.546  0.3301 -0.2668 -0.3851
 1192SOL    HW110575   1.508   2.049   3.626 -0.5410  0.5398  0.3476
 1192SOL    HW210576   1.581   2.112   3.495  0.4828 -1.9492 -0.2977
 1193SOL     OW10577   5.465   5.268   1.541 -0.2213  0.2840 -0.0066
 1193SOL    HW110578   5.382   5.297   1.492 -0.5949  0.2652  0.6113
 1193SOL    HW210579   5.513   5.348   1.576 -0.3985  0.2537  0.3119
 1194SOL     OW10580   3.188   4.635   5.747 -0.3411  0.1858  0.3950
 1194SOL    HW110581   3.187   4.559   5.811 -2.1519  1.4893  1.9630
 1194SOL    HW210582   3.102   4.637   5.696  0.1733  0.5069 -0.4907
 1195SOL     OW10583   6.404   6.464   6.983 -0.2631  0.3995 -0.0214
 1195SOL    HW110584   6.362   6.380   7.017  0.9450 -0.1117  0.2422
 1195SOL    HW210585   6.333   6.534   6.971 -1.1808 -0.4358  0.4016
 1196SOL     OW10586   5.218   6.718   3.505 -0.0281  0.1714  0.4748
 1196SOL    HW110587   5.306   6.729   3.459 -1.3219 -1.2925 -2.4791
 1196SOL    HW210588   5.179   6.807   3.525  1.6409  0.8307  0.8397
 1197SOL     OW10589   4.095   1.679   5.376  0.1382  0.3101 -0.5277
 1197SOL    HW110590   4.005   1.696   5.335 -0.2492 -0.0663  0.1522
 1197SOL    HW210591   4.091   1.699   5.474  0.1522 -1.9627 -0.0459
 1198SOL     OW10592   0.105   5.979   7.344 -0.5502  0.7589  0.2992
 1198SOL    HW110593   0.114   6.046   7.417 -1.5187  0.0094  1.1305
 1198SOL    HW210594   0.026   6.002   7.286 -1.2505  0.0110  0.9492
 1199SOL     OW10595   3.957   3.615   0.433  0.2388  0.2226  0.2808
 1199SOL    HW110596   3.926   3.523   0.409  0.2954  0.5515 -1.1303
 1199SOL    HW210597   4.057   3.617   0.433  0.2462  0.7238 -1.5396
 1200SOL     OW10598   1.511   0.891   2.195  0.3344 -0.2126 -0.0796
 1200SOL    HW110599   1.428   0.836   2.197 -0.1628  0.5565  0.4425
 1200SOL    HW210600   1.558   0.877   2.107 -1.8631  1.5669 -1.5906
 1201SOL     OW10601   4.121   6.889   3.909 -0.7271 -0.2319 -0.0444
 1201SOL    HW110602   4.074   6.824   3.969 -0.6164 -0.4159 -0.1567
 1201SOL    HW210603   4.130   6.977   3.956  0.0079 -0.5860  0.4866
 1202SOL     OW10604   7.232   3.498   0.131 -0.3729  0.5506 -0.2483
 1202SOL    HW110605   7.220   3.417   0.189  0.7216 -0.6954 -1.6958
 1202SOL    HW210606   7.194   3.480   0.041 -1.5275  2.2587 -0.1221
 1203SOL     OW10607   4.608   5.837   5.144 -0.5205  0.1766  0.3550
 1203SOL    HW110608   4.688   5.792   5.104 -0.6910 -0.3623  0.6079
 1203SOL    HW210609   4.633   5.928   5.177 -0.0052 -0.0097  0.4740
 1204SOL     OW10610   3.016   0.138   2.534  0.3581 -0.4669  0.2922
 1204SOL    HW110611   3.014   0.069   2.461 -0.4699  0.4839 -0.6000
 1204SOL    HW210612   2.955   0.109   2.608 -2.2523  0.6643 -1.3522
 1205SOL     OW10613   6.711   0.905   0.570 -0.7338 -0.1470 -0.2070
 1205SOL    HW110614   6.758   0.868   0.490  1.6449  0.1890  0.9654
 1205SOL    HW210615   6.726   1.003   0.575 -0.8060 -0.1722  0.6687
 1206SOL     OW10616   0.326   7.084   0.470 -0.3374  0.4613 -0.2398
 1206SOL    HW110617   0.399   7.136   0.425  1.3643 -0.9475  0.8246
 1206SOL    HW210618   0.294   7.012   0.409  0.0395  0.3010 -0.2519
 1207SOL     OW10619   5.668   3.148   2.631  0.3307 -0.1989  0.2510
 1207SOL    HW110620   5.748   3.089   2.614 -0.4574 -1.2003 -0.0344
 1207SOL    HW210621   5.699   3.236   2.666  1.5599 -0.6496  0.3367
 1208SOL     OW10622   5.025   2.767   1.153  0.0500  0.1438 -0.3893
 1208SOL    HW110623   4.974   2.840   1.108 -0.5777  0.6740  1.1595
 1208SOL    HW210624   5.118   2.797   1.170 -0.2347  0.6364  0.3375
 1209SOL     OW10625   4.479   4.528   3.750 -0.5410 -0.2779 -0.5339
 1209SOL    HW110626   4.530   4.446   3.776  0.4800  0.7283  0.6631
 1209SOL    HW210627   4.476   4.591   3.827 -0.2144  1.3663 -1.8569
 1210SOL     OW10628   6.746   1.720   2.667  0.3411  0.5508  0.4802
 1210SOL    HW110629   6.711   1.812   2.682 -0.3708  0.2465  0.7092
 1210SOL    HW210630   6.728   1.664   2.748 -0.7832 -0.2608 -0.3117
 1211SOL     OW10631   3.388   6.800   1.954 -0.4659 -0.1224 -0.0441
 1211SOL    HW110632   3.406   6.866   2.026  0.2128 -1.0842  0.6836
 1211SOL    HW210633   3.324   6.731   1.987 -0.7043 -0.1735 -0.5990
 1212SOL     OW10634   4.206   6.213   5.469  0.0643 -0.4706  0.4345
 1212SOL    HW110635   4.230   6.118   5.489  0.8424 -0.1720  0.9377
 1212SOL    HW210636   4.159   6.218   5.381 -0.8744 -1.4415  0.8831
 1213SOL     OW10637   4.335   1.005   4.846  0.3813 -0.3442 -0.2637
 1213SOL    HW110638   4.290   0.982   4.932  0.3908 -2.2158 -0.7376
 1213SOL    HW210639   4.429   0.971   4.847  1.4231  2.4066  0.2016
 1214SOL     OW10640   6.650   3.642   2.413  0.5344 -0.1154 -0.0588
 1214SOL    HW110641   6.733   3.590   2.435  0.7789  0.7650  1.2029
 1214SOL    HW210642   6.570   3.594   2.451  0.6561 -0.0790  0.2494
 1215SOL     OW10643   4.561   2.977   1.810 -0.1565 -0.4605  0.1956
 1215SOL    HW110644   4.550   3.055   1.872 -1.5807 -0.7942  0.3637
 1215SOL    HW210645   4.570   3.011   1.716 -1.1120 -0.1012  0.2287
 1216SOL     OW10646   7.317   2.455   7.220  0.1910  0.0838  1.1132
 1216SOL    HW110647   7.416   2.448   7.231  0.1276 -0.8322  1.1536
 1216SOL    HW210648   7.284   2.378   7.165 -0.5049  0.3529  1.1436
 1217SOL     OW10649   6.251   4.686   3.894 -0.1627 -0.4714 -0.1556
 1217SOL    HW110650   6.168   4.708   3.842 -0.6953 -1.2395  0.3470
 1217SOL    HW210651   6.331   4.722   3.847 -0.6516 -1.0628 -1.4712
 1218SOL     OW10652   2.597   3.063   4.330  0.0856 -0.3332 -0.1299
 1218SOL    HW110653   2.633   3.085   4.421  0.6573 -1.3675 -0.0898
 1218SOL    HW210654   2.673   3.038   4.270 -0.2587  0.6110 -0.9800
 1219SOL     OW10655   4.265   2.161   5.396 -0.0073 -0.5837 -0.3258
 1219SOL    HW110656   4.224   2.251   5.406 -0.0133 -0.5270 -0.8231
 1219SOL    HW210657   4.220   2.096   5.457  1.2130  0.1445  1.3769
 1220SOL     OW10658   1.060   3.902   5.452  0.0583 -0.0426 -0.4378
 1220SOL    HW110659   1.009   3.904   5.538 -0.5896 -1.8452 -0.7531
 1220SOL    HW210660   1.018   3.835   5.390  0.8306  0.8480 -1.9586
 1221SOL     OW10661   4.851   5.378   4.901 -0.1953  0.3094 -0.7253
 1221SOL    HW110662   4.883   5.443   4.970 -0.4963 -0.4803  0.1614
 1221SOL    HW210663   4.920   5.305   4.890 -0.9304 -0.5071  0.0050
 1222SOL     OW10664   2.785   6.006   1.046  0.8064 -0.0652  0.9494
 1222SOL    HW110665   2.756   5.911   1.031 -1.6206  0.8688 -0.5702
 1222SOL    HW210666   2.823   6.043   0.961  2.5392  0.0756  1.7726
 1223SOL     OW10667   5.688   0.295   2.506 -0.3398 -0.1423 -0.0641
 1223SOL    HW110668   5.760   0.241   2.463 -0.9272 -0.9611 -0.0296
 1223SOL    HW210669   5.716   0.320   2.599  0.6390  1.0478 -0.6784
 1224SOL     OW10670   3.898   1.397   3.536 -0.4055 -0.1662 -0.3178
 1224SOL    HW110671   3.943   1.308   3.548  0.7230  0.4348  0.0113
 1224SOL    HW210672   3.807   1.384   3.498 -1.6586 -1.7417  3.0319
 1225SOL     OW10673   5.083   5.636   5.631  0.2739  0.4661  0.3306
 1225SOL    HW110674   5.072   5.570   5.556 -0.7745 -2.0352  2.6212
 1225SOL    HW210675   5.170   5.619   5.677 -1.0685 -0.9088  2.4083
 1226SOL     OW10676   2.481   3.700   3.860  0.8961  0.0259 -0.1578
 1226SOL    HW110677   2.386   3.731   3.858  0.4214 -1.2683  1.0941
 1226SOL    HW210678   2.490   3.618   3.804  1.0737 -0.3546  0.4194
 1227SOL     OW10679   5.951   2.474   6.594 -0.2877  0.9386 -0.0521
 1227SOL    HW110680   5.976   2.496   6.500 -1.0814 -0.3062 -0.5596
 1227SOL    HW210681   5.946   2.559   6.648 -0.2773  1.6998 -1.2383
 1228SOL     OW10682   6.844   2.725   4.029 -0.1342 -0.3991 -0.0054
 1228SOL    HW110683   6.896   2.652   3.987  0.6802  1.0389 -1.5617
 1228SOL    HW210684   6.903   2.778   4.091 -0.3324 -0.1484 -0.0275
 1229SOL     OW10685   2.802   3.681   1.130 -0.0430  0.4296  0.2087
 1229SOL    HW110686   2.877   3.652   1.070  0.2374 -0.2910  0.9019
 1229SOL    HW210687   2.726   3.617   1.121 -0.3195  0.7822  0.0151
 1230SOL     OW10688   6.787   6.421   6.584 -0.1370 -0.1244  0.0612
 1230SOL    HW110689   6.827   6.512   6.593  0.0933 -0.1798 -0.4009
 1230SOL    HW210690   6.690   6.430   6.559  0.2201 -0.0146 -1.3337
 1231SOL     OW10691   7.174   0.513   2.457  0.3879  0.1303  0.1381
 1231SOL    HW110692   7.107   0.542   2.389  0.2937  1.3661  0.7382
 1231SOL    HW210693   7.127   0.467   2.532  0.2170  0.9797  0.5503
 1232SOL     OW10694   5.258   0.758   3.649 -0.0286  0.1602 -0.1471
 1232SOL    HW110695   5.283   0.718   3.738 -0.7140  1.5416  0.6826
 1232SOL    HW210696   5.164   0.733   3.627  0.3473 -0.7001 -0.7882
 1233SOL     OW10697   4.246   0.372   1.059 -0.2884  0.1310  0.3315
 1233SOL    HW110698   4.209   0.367   0.966 -1.5569  0.1672  0.8222
 1233SOL    HW210699   4.303   0.293   1.076  0.7986  0.6487 -0.8376
 1234SOL     OW10700   4.486   6.634   6.103 -0.4037  0.6003  0.0510
 1234SOL    HW110701   4.478   6.553   6.160 -0.8788  0.3400 -0.3889
 1234SOL    HW210702   4.580   6.642   6.070 -0.0429  0.9362  1.1364
 1235SOL     OW10703   0.098   3.556   1.128  0.1741 -0.5826 -0.0095
 1235SOL    HW110704   0.028   3.592   1.189  1.4161  1.0757  0.4407
 1235SOL    HW210705   0.148   3.483   1.174 -1.7025 -2.2953 -0.5871
 1236SOL     OW10706   6.225   0.835   5.440  0.0295 -0.3839 -0.3871
 1236SOL    HW110707   6.174   0.871   5.362  0.3028  0.0448 -0.3671
 1236SOL    HW210708   6.320   0.817   5.413  0.1985  0.0417 -0.0703
 1237SOL     OW10709   3.363   6.078   6.326 -0.2301 -0.4526 -0.8948
 1237SOL    HW110710   3.425   6.139   6.276 -0.7084 -1.0320 -2.2161
 1237SOL    HW210711   3.412   5.994   6.349  0.7008  0.7350  1.7039
 1238SOL     OW10712   0.156   1.027   5.542 -0.1287  0.4178  0.4360
 1238SOL    HW110713   0.216   1.055   5.468  0.5940 -0.2833  0.7576
 1238SOL    HW210714   0.204   0.964   5.603 -1.6473 -1.3903 -0.1567
 1239SOL     OW10715   1.301   1.928   0.258 -0.3593 -0.1245 -0.1190
 1239SOL    HW110716   1.335   1.930   0.163 -0.1512 -0.6403 -0.0588
 1239SOL    HW210717   1.375   1.898   0.318 -1.4725 -3.2648 -0.2370
 1240SOL     OW10718   6.822   5.003   6.795 -0.0452  0.3519  0.2226
 1240SOL    HW110719   6.843   5.033   6.702  0.0162  0.5794  0.3098
 1240SOL    HW210720   6.906   5.002   6.849 -0.2537  1.2400  0.5676
 1241SOL     OW10721   5.618   3.681   5.348 -0.4207  0.4277 -0.5094
 1241SOL    HW110722   5.639   3.697   5.445  0.6882  2.1157 -1.0030
 1241SOL    HW210723   5.583   3.588   5.337  2.6434 -0.9941  1.0185
 1242SOL     OW10724   6.679   2.566   6.385 -0.3293 -0.0498  0.5131
 1242SOL    HW110725   6.721   2.491   6.334  0.1514  0.7925 -0.3540
 1242SOL    HW210726   6.621   2.620   6.323  0.2539  0.9856  0.8628
 1243SOL     OW10727   3.963   6.176   3.869  0.0742 -0.0464  0.0229
 1243SOL    HW110728   3.893   6.189   3.939  0.3551  0.9210  0.1399
 1243SOL    HW210729   4.028   6.252   3.873 -0.6238  0.7066 -2.1132
 1244SOL     OW10730   0.753   4.697   2.132 -1.0150  0.0814  0.2060
 1244SOL    HW110731   0.707   4.623   2.183 -0.1016 -1.0655 -0.6202
 1244SOL    HW210732   0.691   4.731   2.061 -0.4429 -1.8265 -1.2555
 1245SOL     OW10733   1.852   5.067   5.107  0.4549 -0.1507  0.4926
 1245SOL    HW110734   1.778   5.132   5.089 -0.0826 -1.1386 -0.9164
 1245SOL    HW210735   1.859   5.002   5.031  1.9378 -0.8548  1.2077
 1246SOL     OW10736   4.548   7.114   0.887 -0.2020  0.0965 -0.0617
 1246SOL    HW110737   4.644   7.118   0.915 -0.3311 -0.3269  0.4584
 1246SOL    HW210738   4.491   7.105   0.969 -0.6304 -0.4834 -0.4272
 1247SOL     OW10739   4.077   6.033   6.059 -0.6686 -0.1983  0.0260
 1247SOL    HW110740   4.106   5.943   6.093  1.9840  1.5268  2.6483
 1247SOL    HW210741   4.142   6.065   5.990  1.8722  2.1315  3.3241
 1248SOL     OW10742   2.729   3.120   4.549  0.2340  0.1139 -0.2364
 1248SOL    HW110743   2.717   3.164   4.638 -1.4950 -0.9092  0.0557
 1248SOL    HW210744   2.814   3.067   4.549 -0.9375 -1.8543  1.6545
 1249SOL     OW10745   7.017   1.563   2.890 -0.3172 -0.3214  0.0807
 1249SOL    HW110746   7.027   1.648   2.837 -1.4451 -0.4429 -0.3591
 1249SOL    HW210747   7.107   1.528   2.915  0.1890  0.4700 -0.5983
 1250SOL     OW10748   6.551   6.521   0.027 -0.1071  0.1088  0.2989
 1250SOL    HW110749   6.494   6.448  -0.011  3.7974 -1.7070 -2.3540
 1250SOL    HW210750   6.565   6.592  -0.042  0.4909  0.7938  1.1098
 1251SOL     OW10751   2.198   0.145   0.034 -0.0779 -0.4604  0.1764
 1251SOL    HW110752   2.291   0.144  -0.002  0.0545 -0.5398  0.5157
 1251SOL    HW210753   2.154   0.232   0.012  0.4328 -0.0115  0.9108
 1252SOL     OW10754   1.276   1.245   0.901 -0.1122 -0.4949  0.6492
 1252SOL    HW110755   1.292   1.148   0.918  0.4557 -0.0692  2.6493
 1252SOL    HW210756   1.183   1.269   0.929  0.0844 -0.2603  1.1108
 1253SOL     OW10757   6.129   5.520   2.990 -0.3169 -0.0635  0.6749
 1253SOL    HW110758   6.106   5.425   2.970 -0.5381 -0.2483  1.7887
 1253SOL    HW210759   6.097   5.578   2.915 -0.2424 -0.8556  0.0230
 1254SOL     OW10760   6.003   7.117   4.162 -0.1748  0.3365  0.0579
 1254SOL    HW110761   5.985   7.022   4.189 -1.2663  0.5789  0.2399
 1254SOL    HW210762   6.030   7.120   4.066 -1.1707 -0.0606 -0.2398
 1255SOL     OW10763   4.844   3.172   5.399  0.3598 -0.8179 -0.7477
 1255SOL    HW110764   4.763   3.136   5.353 -0.2663 -1.3740  0.7542
 1255SOL    HW210765   4.925   3.121   5.370  0.2449 -0.0400 -2.5131
 1256SOL     OW10766   1.126   2.475   3.389  0.3159  0.4450 -0.6359
 1256SOL    HW110767   1.183   2.404   3.347  2.4519 -0.3779  3.4110
 1256SOL    HW210768   1.060   2.432   3.451 -2.7114  1.6262 -2.9341
 1257SOL     OW10769   4.594   4.559   7.057  0.0336  0.2701 -0.0745
 1257SOL    HW110770   4.515   4.615   7.035 -0.1207  0.7726  1.6765
 1257SOL    HW210771   4.665   4.571   6.987 -0.6043  1.4568 -0.5167
 1258SOL     OW10772   3.723   5.940   6.238 -0.3746 -0.0245  0.0267
 1258SOL    HW110773   3.729   6.032   6.200 -2.1627 -0.4358 -1.2832
 1258SOL    HW210774   3.721   5.872   6.164  1.7703 -1.2000  0.9858
 1259SOL     OW10775   2.340   2.899   2.872 -0.0949  0.7353 -0.0408
 1259SOL    HW110776   2.275   2.971   2.846  1.2170  1.7723 -0.5418
 1259SOL    HW210777   2.293   2.811   2.875 -1.4995  1.4488 -0.4890
 1260SOL     OW10778   2.594   2.769   2.516 -0.1679  0.2829  0.2250
 1260SOL    HW110779   2.556   2.699   2.576 -0.6691  0.8235  0.5377
 1260SOL    HW210780   2.637   2.841   2.570  0.1091  0.3550 -0.0864
 1261SOL     OW10781   2.628   2.090   4.578 -0.5323  0.1666  0.1499
 1261SOL    HW110782   2.585   2.007   4.543 -0.7950 -0.4595  1.9280
 1261SOL    HW210783   2.559   2.149   4.619 -0.0680  0.3365  0.7042
 1262SOL     OW10784   2.659   4.240   1.547 -0.3552  0.2277  0.1789
 1262SOL    HW110785   2.758   4.239   1.531 -0.2150 -1.2244  1.1389
 1262SOL    HW210786   2.611   4.240   1.459  0.4853 -0.5390 -0.2838
 1263SOL     OW10787   3.697   0.367   3.290  0.0272 -0.3686  0.2816
 1263SOL    HW110788   3.685   0.329   3.381 -0.2345 -1.0481 -0.0362
 1263SOL    HW210789   3.628   0.438   3.275  0.4954  0.2198  0.8569
 1264SOL     OW10790   5.395   3.210   2.169 -0.2950 -0.5383  0.3290
 1264SOL    HW110791   5.440   3.286   2.216  0.3841 -0.4566 -0.4332
 1264SOL    HW210792   5.440   3.195   2.081 -2.1213 -0.0896 -0.7008
 1265SOL     OW10793   1.434   4.132   5.934  0.1301 -0.2240 -0.1043
 1265SOL    HW110794   1.373   4.079   5.875 -0.1902 -1.2054  1.0934
 1265SOL    HW210795   1.401   4.129   6.028  1.3638  0.2322  0.3543
 1266SOL     OW10796   7.315   4.317   2.066  0.0281 -0.9197 -0.5100
 1266SOL    HW110797   7.362   4.251   2.124 -3.3420 -3.2416 -0.2707
 1266SOL    HW210798   7.368   4.330   1.982  2.4696 -1.2753  0.9276
 1267SOL     OW10799   4.447   2.507   1.879 -0.5667 -0.1389  0.0245
 1267SOL    HW110800   4.413   2.535   1.969  1.3712 -0.9046  1.0428
 1267SOL    HW210801   4.524   2.567   1.853  0.2127 -1.2058 -0.1611
 1268SOL     OW10802   0.860   5.388   2.109  0.0892 -0.5265 -0.2279
 1268SOL    HW110803   0.879   5.429   2.198  1.0573 -2.0928  0.3117
 1268SOL    HW210804   0.806   5.305   2.121 -1.9651  0.6051 -1.3117
 1269SOL     OW10805   7.136   5.551   1.970  0.3995  0.1142  0.0116
 1269SOL    HW110806   7.055   5.494   1.956 -1.2477  1.7623  2.4150
 1269SOL    HW210807   7.218   5.501   1.942 -1.2979 -2.2127 -0.8961
 1270SOL     OW10808   6.485   7.097   5.168  0.1967 -0.5754 -0.1528
 1270SOL    HW110809   6.534   7.059   5.247 -1.1757 -2.1146 -0.0071
 1270SOL    HW210810   6.409   7.154   5.201  0.3419 -0.2522 -0.3722
 1271SOL     OW10811   5.499   5.561   2.794  0.2266 -0.5045 -0.2223
 1271SOL    HW110812   5.428   5.491   2.782 -3.4126  2.7150  1.6102
 1271SOL    HW210813   5.523   5.568   2.891  0.7957  0.5659 -0.4367
 1272SOL     OW10814   3.681   4.803   0.181 -0.0404 -0.1966  0.8533
 1272SOL    HW110815   3.695   4.747   0.100  0.9394  0.1208  0.7950
 1272SOL    HW210816   3.596   4.776   0.227 -0.4541 -0.5597 -0.1197
 1273SOL     OW10817   2.109   4.813   4.486  0.2107  0.2548 -0.2485
 1273SOL    HW110818   2.189   4.812   4.547 -0.5390  0.5631  0.7450
 1273SOL    HW210819   2.141   4.820   4.392  1.4584 -2.3789 -0.0757
 1274SOL     OW10820   0.648   6.291   4.662  0.3459  0.6829  0.2532
 1274SOL    HW110821   0.560   6.294   4.615  0.5124 -0.5228 -0.1548
 1274SOL    HW210822   0.688   6.383   4.664 -1.1392  1.3308  0.8767
 1275SOL     OW10823   4.107   2.196   1.929 -0.9915 -0.2614  0.3176
 1275SOL    HW110824   4.059   2.109   1.928 -0.6848 -0.4328  0.1658
 1275SOL    HW210825   4.069   2.256   1.858 -0.9267 -0.4259  0.1428
 1276SOL     OW10826   1.741   5.489   4.916  0.0028 -0.3010  0.1622
 1276SOL    HW110827   1.817   5.555   4.916 -0.3422  0.0937  0.1147
 1276SOL    HW210828   1.735   5.445   4.826  0.6373 -0.8665  0.3867
 1277SOL     OW10829   5.529   0.025   0.966 -0.0304  0.3602  0.1194
 1277SOL    HW110830   5.594   0.027   1.042  1.1704 -2.1577 -0.8007
 1277SOL    HW210831   5.576   0.045   0.880 -1.1133  1.7731 -0.1628
 1278SOL     OW10832   0.277   0.771   6.115  0.2706 -0.7097  0.0813
 1278SOL    HW110833   0.244   0.683   6.081  0.5659 -1.3523  1.4378
 1278SOL    HW210834   0.217   0.803   6.189  0.9340 -0.4195  0.4986
 1279SOL     OW10835   4.877   2.705   6.939  0.3313  0.8044 -0.2794
 1279SOL    HW110836   4.950   2.640   6.960 -0.5471 -0.3221 -0.6400
 1279SOL    HW210837   4.858   2.763   7.019  1.4778  0.9731 -0.1297
 1280SOL     OW10838   2.336   5.159   4.654  0.7855  0.8911 -0.3256
 1280SOL    HW110839   2.270   5.234   4.651  0.8744  0.9620 -0.5112
 1280SOL    HW210840   2.326   5.102   4.573  1.0049  0.9494 -0.3960
 1281SOL     OW10841   4.702   3.361   4.740 -0.2335  0.0124 -0.1795
 1281SOL    HW110842   4.685   3.273   4.695  2.2177 -0.1518 -0.8628
 1281SOL    HW210843   4.743   3.345   4.829 -2.4030  0.4234  0.9244
 1282SOL     OW10844   3.287   2.207   3.840 -0.3125  0.0861  0.1912
 1282SOL    HW110845   3.210   2.163   3.887 -0.4726  0.2987  0.1270
 1282SOL    HW210846   3.361   2.224   3.906 -0.1914 -0.4100  0.1882
 1283SOL     OW10847   2.887   1.334   6.583 -0.2807 -0.4803  0.9388
 1283SOL    HW110848   2.936   1.395   6.646 -0.2444 -1.3190  1.7363
 1283SOL    HW210849   2.949   1.303   6.511 -0.3449  0.5547  0.4325
 1284SOL     OW10850   5.811   6.221   4.373  0.3559 -0.3994  0.3845
 1284SOL    HW110851   5.874   6.265   4.310 -0.7796 -0.6069 -0.9088
 1284SOL    HW210852   5.850   6.222   4.465  2.0511 -0.1677 -0.3250
 1285SOL     OW10853   5.250   5.396   3.082 -0.4952 -0.0688  0.1369
 1285SOL    HW110854   5.322   5.403   3.150  0.6590  2.2102 -1.2562
 1285SOL    HW210855   5.170   5.351   3.122  0.2098  1.0832  2.9402
 1286SOL     OW10856   3.885   3.642   6.395 -0.5436  0.0671 -0.2847
 1286SOL    HW110857   3.886   3.548   6.430 -1.8835  0.0644 -0.2589
 1286SOL    HW210858   3.965   3.655   6.335  1.0769 -0.3009  1.7340
 1287SOL     OW10859   5.163   6.489   4.387  0.5142  0.2698  0.5362
 1287SOL    HW110860   5.102   6.414   4.413  0.8563 -0.3362 -0.3601
 1287SOL    HW210861   5.114   6.576   4.393 -0.3855 -0.1876  0.0137
 1288SOL     OW10862   0.515   4.913   1.061  0.6525  0.1744 -0.2783
 1288SOL    HW110863   0.499   4.974   0.984 -0.2230  0.4863  0.1478
 1288SOL    HW210864   0.548   4.966   1.139 -0.0717  0.0952  0.0817
 1289SOL     OW10865   2.788   1.875   5.434 -0.1685  0.1470 -0.3380
 1289SOL    HW110866   2.733   1.868   5.350  0.7327 -1.3721 -0.8312
 1289SOL    HW210867   2.881   1.901   5.410  0.2085 -0.7491  0.1467
 1290SOL     OW10868   0.913   4.662   6.908  0.1110 -0.1114 -0.1584
 1290SOL    HW110869   0.890   4.594   6.978 -1.6283  0.2613 -0.3601
 1290SOL    HW210870   0.884   4.628   6.818 -1.8768  1.4049 -0.1188
 1291SOL     OW10871   3.365   5.259   1.524  0.6326 -0.2799  0.0589
 1291SOL    HW110872   3.307   5.316   1.583 -0.4878 -1.0049 -0.3228
 1291SOL    HW210873   3.446   5.230   1.575  0.7321  0.8559  0.5643
 1292SOL     OW10874   5.315   2.543   0.245 -0.0065  0.3474  0.2411
 1292SOL    HW110875   5.327   2.514   0.150 -1.3065 -0.3895  0.2780
 1292SOL    HW210876   5.281   2.466   0.299  0.6603  0.7805  1.2919
 1293SOL     OW10877   2.158   3.101   3.444 -0.2337  0.3685  0.4494
 1293SOL    HW110878   2.234   3.134   3.501 -2.2580  2.2207  2.1400
 1293SOL    HW210879   2.071   3.118   3.491 -1.7784 -0.8416 -1.8957
 1294SOL     OW10880   5.654   4.140   0.616  0.4408 -0.1293 -0.0439
 1294SOL    HW110881   5.736   4.167   0.666  0.3034 -1.4511  0.9430
 1294SOL    HW210882   5.666   4.158   0.519  1.7730  0.0091  0.1431
 1295SOL     OW10883   2.555   5.592   6.121  0.5381 -0.4240  0.5400
 1295SOL    HW110884   2.509   5.506   6.143  0.7054 -0.4403  0.8273
 1295SOL    HW210885   2.515   5.631   6.038 -0.5474 -0.0363  1.2240
 1296SOL     OW10886   4.040   5.839   2.117 -0.4856  0.2504  0.1194
 1296SOL    HW110887   3.976   5.762   2.124  1.1368 -0.9682  2.0495
 1296SOL    HW210888   4.010   5.913   2.177 -1.0819  0.4569 -0.4156
 1297SOL     OW10889   2.473   1.075   1.993  0.5827  0.2779  0.1250
 1297SOL    HW110890   2.549   1.012   2.009 -0.2155 -0.3982  1.3475
 1297SOL    HW210891   2.433   1.101   2.081 -1.4193 -0.3945 -0.5626
 1298SOL     OW10892   3.648   6.490   3.003  0.5868  0.3687 -0.2621
 1298SOL    HW110893   3.722   6.424   2.985  0.1500 -0.1613 -0.1289
 1298SOL    HW210894   3.572   6.472   2.941  0.5626  0.9070 -0.3887
 1299SOL     OW10895   4.639   7.289   4.839 -0.5411 -0.0168 -0.0029
 1299SOL    HW110896   4.618   7.261   4.746 -0.7916 -0.3116  0.1421
 1299SOL    HW210897   4.633   7.210   4.900 -0.1924  0.1365  0.2339
 1300SOL     OW10898   5.523   3.662   0.907 -0.1464  0.6717 -0.3469
 1300SOL    HW110899   5.461   3.692   0.978 -0.6981 -0.7146 -0.2184
 1300SOL    HW210900   5.471   3.633   0.826  0.2984 -0.6970 -0.1631
 1301SOL     OW10901   7.306   3.216   3.270 -0.9033 -0.0049 -0.6735
 1301SOL    HW110902   7.231   3.174   3.321 -3.0069  2.6068 -1.4935
 1301SOL    HW210903   7.290   3.204   3.172  0.3090 -0.3232 -0.8427
 1302SOL     OW10904   2.517   6.326   4.023 -0.1242 -0.0354 -0.6520
 1302SOL    HW110905   2.539   6.406   4.079 -0.2350 -0.7088  0.3665
 1302SOL    HW210906   2.557   6.337   3.932  1.3241  0.4023  0.0218
 1303SOL     OW10907   1.518   3.105   5.834 -0.8322 -0.4766  0.3112
 1303SOL    HW110908   1.535   3.196   5.796  0.6329 -0.5836  0.7073
 1303SOL    HW210909   1.485   3.113   5.928  0.0556 -0.3826  0.6146
 1304SOL     OW10910   4.421   3.229   0.230  0.1940 -0.7883 -0.2832
 1304SOL    HW110911   4.363   3.192   0.158  0.4524  0.0890 -0.9419
 1304SOL    HW210912   4.373   3.222   0.318 -0.3509 -1.3155 -0.6137
 1305SOL     OW10913   2.315   5.715   4.392  0.1270  0.2294  0.5995
 1305SOL    HW110914   2.322   5.725   4.491 -1.4524 -0.3162  0.7755
 1305SOL    HW210915   2.393   5.662   4.358  0.1998 -0.3574  1.6605
 1306SOL     OW10916   6.843   5.382   3.908 -0.1829  0.2585  0.1944
 1306SOL    HW110917   6.917   5.329   3.950  0.5573  0.5581 -0.7105
 1306SOL    HW210918   6.769   5.320   3.881  0.3465 -0.2196 -0.1682
 1307SOL     OW10919   4.435   2.228   4.841 -0.6228 -0.0523  0.0379
 1307SOL    HW110920   4.511   2.198   4.899  0.7561  1.5213 -0.9310
 1307SOL    HW210921   4.396   2.312   4.878 -1.3402 -0.3753  0.0304
 1308SOL     OW10922   1.961   4.871   0.816 -0.2715  0.2859  1.1989
 1308SOL    HW110923   1.948   4.970   0.805 -1.6128  0.3260  2.8162
 1308SOL    HW210924   1.877   4.824   0.789 -0.0036 -0.3316  1.4410
 1309SOL     OW10925   2.741   1.425   7.221 -0.2336  0.4998  0.2353
 1309SOL    HW110926   2.804   1.409   7.297  0.2604 -0.1089 -0.3071
 1309SOL    HW210927   2.647   1.418   7.255 -0.0200 -1.0915  0.5297
 1310SOL     OW10928   2.093   3.339   7.011  0.0096  0.0068  0.0234
 1310SOL    HW110929   2.176   3.356   6.958  0.0535  0.8008  0.3445
 1310SOL    HW210930   2.117   3.323   7.107 -0.3213  1.9601  0.4618
 1311SOL     OW10931   6.438   5.555   5.949 -0.0404  0.3382 -0.4136
 1311SOL    HW110932   6.460   5.649   5.924  0.6995  0.2429 -0.1219
 1311SOL    HW210933   6.474   5.535   6.040 -0.1910 -0.2305 -0.4753
 1312SOL     OW10934   4.189   4.196   2.669 -0.1838 -0.3040 -0.1825
 1312SOL    HW110935   4.233   4.149   2.746 -0.0240 -0.7582 -0.5476
 1312SOL    HW210936   4.147   4.129   2.608 -1.9637  0.1641  0.5005
 1313SOL     OW10937   1.013   2.319   6.109  0.2403 -0.3336  1.0835
 1313SOL    HW110938   1.096   2.289   6.156  1.2120  0.1955 -0.2613
 1313SOL    HW210939   1.029   2.408   6.066 -0.0281 -1.5782 -1.7177
 1314SOL     OW10940   7.081   1.083   1.125  0.4122  0.2165 -0.4047
 1314SOL    HW110941   7.047   1.019   1.055 -0.2384 -0.2216  0.2991
 1314SOL    HW210942   7.153   1.140   1.086  0.3078 -0.2720 -1.3310
 1315SOL     OW10943   3.266   1.781   7.039 -0.0415  0.1533 -0.1463
 1315SOL    HW110944   3.215   1.863   7.064  1.9438  0.9844  1.3264
 1315SOL    HW210945   3.221   1.700   7.076 -0.4931  0.8332  0.8013
 1316SOL     OW10946   3.701   2.830   4.028 -0.6334 -0.3942 -0.1866
 1316SOL    HW110947   3.737   2.837   4.121 -2.1791 -1.2007  0.4708
 1316SOL    HW210948   3.622   2.891   4.018 -1.1570 -1.1467 -0.6408
 1317SOL     OW10949   1.687   2.583   6.629 -0.7880  0.0761  0.1280
 1317SOL    HW110950   1.776   2.591   6.676 -0.5375  0.3066 -0.3822
 1317SOL    HW210951   1.637   2.669   6.638 -0.5588  0.2688 -0.3823
 1318SOL     OW10952   5.289   2.284   5.574 -0.2768  0.4490  0.2303
 1318SOL    HW110953   5.232   2.297   5.655 -0.9594 -0.1293 -0.1494
 1318SOL    HW210954   5.251   2.209   5.518 -0.9270  2.0882 -1.5835
 1319SOL     OW10955   3.745   0.355   1.338 -0.0286  0.0635  0.6932
 1319SOL    HW110956   3.717   0.261   1.356  0.2846 -0.3135 -0.6845
 1319SOL    HW210957   3.840   0.368   1.364  0.1631 -0.2325  0.1555
 1320SOL     OW10958   4.945   5.507   0.987  0.0867 -0.3203 -0.2041
 1320SOL    HW110959   4.897   5.595   0.992 -0.4158 -0.2826 -4.0249
 1320SOL    HW210960   4.927   5.465   0.898  1.9498 -3.3751  0.8081
 1321SOL     OW10961   4.396   6.893   1.720 -0.7225 -0.1301 -0.0785
 1321SOL    HW110962   4.432   6.829   1.652 -0.1325 -0.4408  0.5203
 1321SOL    HW210963   4.380   6.982   1.677 -1.2193 -0.5787 -0.8319
 1322SOL     OW10964   3.231   5.381   4.977  0.2441  0.2384 -0.0321
 1322SOL    HW110965   3.312   5.393   4.921  0.1285 -1.5335 -0.6213
 1322SOL    HW210966   3.167   5.319   4.931 -1.0003  0.8169  0.8740
 1323SOL     OW10967   2.610   6.918   2.280 -0.2445  0.2342 -0.1043
 1323SOL    HW110968   2.542   6.967   2.334  0.3691 -0.1974  1.0893
 1323SOL    HW210969   2.611   6.822   2.308  0.4814  0.1273 -0.4834
 1324SOL     OW10970   5.912   1.018   4.821 -0.5117  0.4930  0.2459
 1324SOL    HW110971   5.966   0.934   4.832  0.4174  0.5774 -3.0595
 1324SOL    HW210972   5.818   0.995   4.796 -1.0088  0.4380  2.0472
 1325SOL     OW10973   1.694   3.193   1.548 -0.0296 -0.2192 -0.3791
 1325SOL    HW110974   1.613   3.134   1.555 -0.8106  0.8858  0.0029
 1325SOL    HW210975   1.665   3.286   1.527  1.0937  0.3662  0.6530
 1326SOL     OW10976   3.470   5.624   3.369 -1.2278  0.0533 -0.1599
 1326SOL    HW110977   3.374   5.603   3.353 -1.3755  0.3321  0.3419
 1326SOL    HW210978   3.496   5.594   3.461 -1.1761  1.1338  0.1855
 1327SOL     OW10979   2.130   3.367   6.180 -0.1883 -0.0750  0.1012
 1327SOL    HW110980   2.096   3.461   6.187 -1.4508 -0.4318 -1.0073
 1327SOL    HW210981   2.052   3.304   6.173  0.6438 -1.2351  1.1786
 1328SOL     OW10982   4.858   0.004   3.453  0.3251  0.1959  0.2884
 1328SOL    HW110983   4.840   0.080   3.390 -0.6811 -1.0736 -1.0071
 1328SOL    HW210984   4.870  -0.080   3.400 -1.6060 -1.0988  1.8332
 1329SOL     OW10985   6.396   0.365   5.905  0.3861 -0.0748 -0.0322
 1329SOL    HW110986   6.350   0.387   5.990  1.2203  1.5849  0.0099
 1329SOL    HW210987   6.484   0.412   5.901 -0.5077  1.5074 -2.6909
 1330SOL     OW10988   4.824   4.688   0.983  0.0437  0.5675  0.3067
 1330SOL    HW110989   4.745   4.730   1.028  0.6739  1.5853  0.4743
 1330SOL    HW210990   4.894   4.757   0.967  1.0848 -0.4174  0.5376
 1331SOL     OW10991   4.054   7.089   2.942  0.0973 -0.0524  0.5703
 1331SOL    HW110992   4.061   7.187   2.963  0.0731  0.3164 -1.0919
 1331SOL    HW210993   4.107   7.069   2.859 -1.4482 -1.0932 -0.1785
 1332SOL     OW10994   1.956   7.170   6.533  0.4010  0.2100 -0.1737
 1332SOL    HW110995   1.974   7.075   6.557  0.6301  0.9835  2.8437
 1332SOL    HW210996   2.009   7.231   6.592 -3.1316  2.3064  0.9907
 1333SOL     OW10997   0.084   5.437   0.439  0.0074  0.3056 -0.0586
 1333SOL    HW110998   0.124   5.491   0.365 -0.0207  0.7714  0.2668
 1333SOL    HW210999   0.079   5.492   0.522  0.2622 -0.2956  0.3612
 1334SOL     OW11000   0.006   4.369   1.520  0.5982 -0.0590 -0.1184
 1334SOL    HW111001  -0.039   4.297   1.573 -0.8096  2.1018  1.7191
 1334SOL    HW211002  -0.051   4.394   1.442  1.3445 -1.2868 -1.0706
 1335SOL     OW11003   0.083   4.718   5.577  0.0501 -0.3606  0.4516
 1335SOL    HW111004  -0.002   4.731   5.526 -1.0061  0.2531  2.3395
 1335SOL    HW211005   0.159   4.704   5.512 -1.0352  1.6965 -1.3232
 1336SOL     OW11006   2.643   2.009   3.287 -0.8017 -0.0126 -0.1075
 1336SOL    HW111007   2.575   2.076   3.258 -0.8462 -0.5400 -1.2257
 1336SOL    HW211008   2.733   2.035   3.251 -0.6098  0.0784  0.4349
 1337SOL     OW11009   5.197   6.422   3.450  0.0167  0.1128 -0.1120
 1337SOL    HW111010   5.124   6.354   3.440 -1.1488  1.5137 -1.2647
 1337SOL    HW211011   5.159   6.509   3.481  1.4061  0.4683  0.6510
 1338SOL     OW11012   6.632   0.532   1.090  0.1522  0.2743 -0.2050
 1338SOL    HW111013   6.711   0.496   1.139  1.4116  0.1973 -2.2519
 1338SOL    HW211014   6.648   0.628   1.066  0.1657 -0.0935 -1.7128
 1339SOL     OW11015   6.111   1.589   4.897 -0.4466  0.4170 -0.5868
 1339SOL    HW111016   6.088   1.505   4.847  0.2871 -0.5690  0.6923
 1339SOL    HW211017   6.198   1.625   4.864  0.7187 -0.9799  0.8244
 1340SOL     OW11018   3.378   4.945   2.740  0.3411  0.0907 -0.1925
 1340SOL    HW111019   3.320   4.915   2.665 -2.2085  0.6735  1.5062
 1340SOL    HW211020   3.426   4.865   2.778 -1.1931 -0.7898 -0.0629
 1341SOL     OW11021   4.679   5.702   3.558  0.1464  0.6852 -0.0582
 1341SOL    HW111022   4.623   5.661   3.631 -1.7044  0.1442 -1.7284
 1341SOL    HW211023   4.773   5.671   3.566 -0.0944  0.4103  1.9263
 1342SOL     OW11024   6.172   2.995   5.756  0.8037 -0.0170 -0.0334
 1342SOL    HW111025   6.091   3.046   5.727  0.6449 -0.2766 -0.0484
 1342SOL    HW211026   6.252   3.027   5.704  0.6251 -0.0843 -0.3531
 1343SOL     OW11027   5.604   3.899   1.887 -0.3145  0.0453  0.7220
 1343SOL    HW111028   5.515   3.858   1.867 -1.5121  1.2800  3.2936
 1343SOL    HW211029   5.632   3.875   1.980  1.6707  0.3461  0.2205
 1344SOL     OW11030   3.785   6.059   5.749  0.0220 -0.0967 -0.3974
 1344SOL    HW111031   3.869   6.050   5.695  1.0008 -1.7213  1.3714
 1344SOL    HW211032   3.737   5.971   5.752 -0.8504  0.3868  0.0734
 1345SOL     OW11033   4.240   0.257   0.284 -0.3098  0.2912  0.1162
 1345SOL    HW111034   4.148   0.222   0.301 -0.0797  0.6135  2.1206
 1345SOL    HW211035   4.235   0.333   0.220 -1.4276  0.2000  0.0876
 1346SOL     OW11036   4.349   4.952   2.004  0.2406  0.1928 -0.6425
 1346SOL    HW111037   4.363   4.859   2.036  1.9129 -0.6157 -3.5823
 1346SOL    HW211038   4.419   4.976   1.936 -1.2859  2.9049 -1.3537
 1347SOL     OW11039   0.511   0.660   0.897 -0.0788  0.0301 -0.7729
 1347SOL    HW111040   0.545   0.754   0.895  0.7478 -0.2821 -2.0370
 1347SOL    HW211041   0.434   0.651   0.834 -2.0720  0.5523  1.5319
 1348SOL     OW11042   1.786   2.371   3.943 -0.1859  0.6519 -0.5134
 1348SOL    HW111043   1.775   2.365   4.043 -0.1104  2.8165 -0.3414
 1348SOL    HW211044   1.695   2.373   3.901 -0.2120 -1.9183 -0.6314
 1349SOL     OW11045   4.959   4.648   0.659  1.2614  0.2529  0.7528
 1349SOL    HW111046   4.918   4.574   0.605  1.1245  0.6306  0.3306
 1349SOL    HW211047   4.997   4.611   0.743 -1.1326  0.0584  1.8005
 1350SOL     OW11048   5.745   4.023   3.268  0.1815  0.4346 -0.0744
 1350SOL    HW111049   5.698   3.935   3.272  0.9020  0.0559  0.2549
 1350SOL    HW211050   5.693   4.091   3.319 -0.4631  0.2386 -0.4639
 1351SOL     OW11051   0.577   6.470   4.409 -0.4886  0.1841  0.2406
 1351SOL    HW111052   0.516   6.406   4.456  1.2125 -2.7498 -1.3983
 1351SOL    HW211053   0.542   6.487   4.317 -0.2691  0.6738  0.2460
 1352SOL     OW11054   0.972   4.496   1.031 -0.4631 -0.2981  0.1711
 1352SOL    HW111055   0.984   4.439   1.112 -2.5643 -0.9471  0.0356
 1352SOL    HW211056   1.015   4.586   1.047 -0.9545 -0.3824  2.0348
 1353SOL     OW11057   6.556   4.865   0.108 -0.0430 -0.3013 -0.5937
 1353SOL    HW111058   6.643   4.910   0.125 -1.0544  2.7947 -3.1571
 1353SOL    HW211059   6.534   4.870   0.010 -2.2597 -2.6373 -0.2732
 1354SOL     OW11060   1.142   2.961   1.357 -0.2298 -0.6151  0.2334
 1354SOL    HW111061   1.198   3.035   1.320  0.5372 -1.6684 -0.7569
 1354SOL    HW211062   1.105   2.988   1.446  2.2722 -0.0887  1.1447
 1355SOL     OW11063   7.188   3.443   7.237  0.2640 -0.5918  0.6452
 1355SOL    HW111064   7.153   3.379   7.169  1.0413 -1.1837  0.7971
 1355SOL    HW211065   7.116   3.509   7.261  0.2775  0.1993 -1.4247
 1356SOL     OW11066   4.653   3.626   4.681 -0.0155  0.5750  0.4646
 1356SOL    HW111067   4.676   3.529   4.684  0.7611  0.6035 -3.0325
 1356SOL    HW211068   4.571   3.640   4.625 -0.3929  1.9058  1.3150
 1357SOL     OW11069   1.172   4.469   1.513 -0.8052  0.1045 -0.1686
 1357SOL    HW111070   1.097   4.534   1.509 -0.0926  0.8935 -1.2321
 1357SOL    HW211071   1.258   4.518   1.525 -0.2372 -0.6224 -1.1412
 1358SOL     OW11072   4.432   5.591   2.874  0.2777  0.1781  0.1905
 1358SOL    HW111073   4.451   5.673   2.821  2.2390 -0.1943  0.2825
 1358SOL    HW211074   4.477   5.597   2.963  0.3768 -0.9537  0.2301
 1359SOL     OW11075   3.543   5.840   6.394 -0.4716  0.3536  0.1188
 1359SOL    HW111076   3.608   5.901   6.348  1.0389 -0.5900  0.9917
 1359SOL    HW211077   3.533   5.756   6.342 -0.2196  0.0726  0.5266
 1360SOL     OW11078   2.468   4.285   4.949  0.2315  0.6231 -0.4858
 1360SOL    HW111079   2.444   4.191   4.927  1.5317  0.1371  0.1195
 1360SOL    HW211080   2.434   4.307   5.041  0.4729  0.5259 -0.3710
 1361SOL     OW11081   0.661   5.996   0.099  0.2158 -0.7594 -0.0523
 1361SOL    HW111082   0.615   5.952   0.176  0.1122 -0.3828  0.1031
 1361SOL    HW211083   0.597   6.058   0.053  0.0598 -1.5356 -0.8914
 1362SOL     OW11084   5.482   0.914   3.287 -0.0167  0.6047 -0.3304
 1362SOL    HW111085   5.564   0.895   3.233  1.3623  1.8999  1.2496
 1362SOL    HW211086   5.491   0.873   3.378 -1.1767  0.6465 -0.1864
 1363SOL     OW11087   6.475   6.616   3.880 -0.3322 -0.3559 -0.0782
 1363SOL    HW111088   6.489   6.580   3.972  2.2463 -1.7107 -0.9561
 1363SOL    HW211089   6.500   6.713   3.878 -3.7998  0.6401  1.4322
 1364SOL     OW11090   5.298   5.264   6.922  0.1917  1.5687 -0.6333
 1364SOL    HW111091   5.283   5.341   6.860 -0.5332 -0.6418 -3.3239
 1364SOL    HW211092   5.363   5.200   6.880 -1.9342 -1.0375 -0.0675
 1365SOL     OW11093   5.150   5.126   0.591  0.0018  0.9079  0.3631
 1365SOL    HW111094   5.158   5.095   0.686  0.7401  1.6193  0.5318
 1365SOL    HW211095   5.058   5.105   0.557  0.6006 -1.8443  0.3335
 1366SOL     OW11096   7.094   6.909   6.641  0.3693 -0.7738  0.0787
 1366SOL    HW111097   7.053   6.992   6.603  4.1429  0.6319 -1.1194
 1366SOL    HW211098   7.097   6.916   6.740  1.6133  1.0277 -0.0684
 1367SOL     OW11099   1.776   3.704   4.966  0.6052 -0.1425 -0.4405
 1367SOL    HW111100   1.876   3.706   4.958  0.4781  0.7897 -1.9466
 1367SOL    HW211101   1.744   3.610   4.963  1.2859 -0.3346 -2.0031
 1368SOL     OW11102   5.008   5.253   3.145  0.5987 -0.0384  0.0944
 1368SOL    HW111103   4.973   5.170   3.103  0.3724 -0.1231  0.4399
 1368SOL    HW211104   4.935   5.294   3.201 -0.2351  1.9705 -2.3880
 1369SOL     OW11105   0.967   2.235   1.165  0.0949  0.5040  0.2185
 1369SOL    HW111106   1.000   2.258   1.074  0.8622  0.4027  0.4600
 1369SOL    HW211107   0.885   2.288   1.186 -0.4192  0.0911 -0.7521
 1370SOL     OW11108   4.347   6.508   4.366 -0.1461 -0.1123  0.2753
 1370SOL    HW111109   4.307   6.458   4.444 -1.7223 -1.2374 -1.2274
 1370SOL    HW211110   4.441   6.476   4.351 -0.5163 -1.3188  0.4758
 1371SOL     OW11111   1.529   0.731   0.812  0.5433 -0.1212 -0.3588
 1371SOL    HW111112   1.449   0.748   0.755  0.9216  1.5884 -0.4080
 1371SOL    HW211113   1.612   0.755   0.762  0.9771 -0.1713  0.3295
 1372SOL     OW11114   2.163   0.056   6.812 -0.0958  0.0360  0.6263
 1372SOL    HW111115   2.218  -0.019   6.774  0.1251  1.1761 -1.3887
 1372SOL    HW211116   2.174   0.059   6.911  1.0337 -1.6928  0.5675
 1373SOL     OW11117   5.170   3.857   1.976 -0.2014 -0.0438  0.2099
 1373SOL    HW111118   5.107   3.892   1.907  0.0600  0.0218  0.0011
 1373SOL    HW211119   5.146   3.896   2.066  0.3799  1.0715 -0.1011
 1374SOL     OW11120   3.213   6.171   7.213  0.4756 -1.0395 -0.1060
 1374SOL    HW111121   3.297   6.222   7.233  0.1732 -0.5894 -0.0039
 1374SOL    HW211122   3.171   6.141   7.298  0.2813 -0.8702 -0.1444
 1375SOL     OW11123   1.904   2.108   1.867 -0.1909 -0.0288  0.1759
 1375SOL    HW111124   1.896   2.035   1.935  0.2374  0.3209  0.6072
 1375SOL    HW211125   1.942   2.189   1.911  2.0399 -0.4511 -0.9385
 1376SOL     OW11126   3.763   5.738   6.048 -0.7335 -0.1604 -0.5886
 1376SOL    HW111127   3.742   5.749   5.951  0.6191  0.0858 -0.8643
 1376SOL    HW211128   3.843   5.679   6.058  0.5752  1.7269  0.2667
 1377SOL     OW11129   3.183   2.985   5.845  0.4227 -0.0792  0.1272
 1377SOL    HW111130   3.143   2.916   5.906 -1.8643  0.6611 -0.4708
 1377SOL    HW211131   3.200   3.069   5.896 -1.2068  0.4404 -0.1639
 1378SOL     OW11132   4.513   1.026   0.322  0.3856 -0.1376 -0.3836
 1378SOL    HW111133   4.477   0.938   0.354  1.4781 -1.2138 -1.9972
 1378SOL    HW211134   4.525   1.087   0.400 -0.1585 -1.5119  0.8077
 1379SOL     OW11135   3.273   2.908   6.626 -0.0767  0.6017  0.4279
 1379SOL    HW111136   3.300   2.941   6.536 -0.6702  0.5378  0.2219
 1379SOL    HW211137   3.193   2.849   6.617 -0.7770  1.4466  1.1148
 1380SOL     OW11138   5.940   1.711   0.010 -0.1799 -0.4859  0.0897
 1380SOL    HW111139   5.953   1.617  -0.020 -0.7972  0.0777 -1.9907
 1380SOL    HW211140   5.842   1.733   0.010 -0.0128  0.2721  0.1828
 1381SOL     OW11141   3.969   6.949   4.847 -0.3890 -0.2622 -0.3164
 1381SOL    HW111142   3.921   6.870   4.886 -1.2079 -0.0117 -0.8057
 1381SOL    HW211143   3.914   6.989   4.774 -0.4348  1.3766  0.5900
 1382SOL     OW11144   1.312   4.112   4.497 -0.1628  0.2599  0.3227
 1382SOL    HW111145   1.257   4.108   4.581 -0.1379  1.3573  0.4033
 1382SOL    HW211146   1.384   4.043   4.501  0.4549  0.9555  1.6538
 1383SOL     OW11147   4.146   0.806   2.055  0.2549  0.2495 -0.2559
 1383SOL    HW111148   4.223   0.807   2.120 -1.1887 -0.6368  1.5011
 1383SOL    HW211149   4.073   0.864   2.090 -1.6555 -2.4212  0.3358
 1384SOL     OW11150   3.701   7.303   5.326  0.3514  0.0986  0.0606
 1384SOL    HW111151   3.662   7.324   5.236 -0.0484 -1.4902 -0.1586
 1384SOL    HW211152   3.793   7.265   5.314  0.9304  1.3671  0.4249
 1385SOL     OW11153   3.377   4.294   0.674 -0.1090 -0.3081 -0.0891
 1385SOL    HW111154   3.346   4.364   0.738 -0.2243  0.4008 -0.9126
 1385SOL    HW211155   3.330   4.305   0.587 -0.1316 -1.4200 -0.2252
 1386SOL     OW11156   2.968   2.737   1.177  0.0434  0.0889  0.2577
 1386SOL    HW111157   2.873   2.740   1.208  0.1918 -0.5482  0.7801
 1386SOL    HW211158   2.984   2.651   1.128  0.2681  0.3365 -0.1045
 1387SOL     OW11159   4.527   6.560   6.562 -0.2150 -0.5469  0.8304
 1387SOL    HW111160   4.437   6.522   6.583  0.1917 -2.3367 -0.5855
 1387SOL    HW211161   4.523   6.612   6.477  0.3759 -1.7390  0.0665
 1388SOL     OW11162   1.130   0.136   5.543 -0.1975  0.2601  0.4556
 1388SOL    HW111163   1.060   0.166   5.479 -0.9183  0.2246  1.2117
 1388SOL    HW211164   1.173   0.052   5.510 -1.1342 -0.2095  0.4138
 1389SOL     OW11165   6.774   0.514   7.101 -0.0986  1.0698  0.1726
 1389SOL    HW111166   6.729   0.466   7.176 -0.2956  0.5833 -0.2496
 1389SOL    HW211167   6.873   0.503   7.109 -0.1776 -0.1857 -0.4170
 1390SOL     OW11168   4.276   1.567   5.783 -0.2744  0.0800  0.0972
 1390SOL    HW111169   4.321   1.591   5.697  0.4757  1.9426  0.9888
 1390SOL    HW211170   4.344   1.531   5.847 -0.4841  0.5165  0.5687
 1391SOL     OW11171   3.980   2.765   6.508 -0.8459 -0.0625 -0.1837
 1391SOL    HW111172   4.073   2.765   6.546 -0.6128  0.7488 -0.7442
 1391SOL    HW211173   3.946   2.671   6.504 -1.3345 -0.1062  3.1332
 1392SOL     OW11174   0.753   0.249   5.900 -0.8849 -0.2042  0.4730
 1392SOL    HW111175   0.804   0.334   5.913 -0.4003 -0.3001 -0.7321
 1392SOL    HW211176   0.657   0.264   5.925 -1.3608  1.4280 -2.0579
 1393SOL     OW11177   4.905   3.712   2.923 -0.3384 -0.2249  0.1592
 1393SOL    HW111178   4.980   3.676   2.868 -1.0537 -1.4301 -0.0404
 1393SOL    HW211179   4.904   3.812   2.917  0.3488 -0.2819 -1.0182
 1394SOL     OW11180   1.620   3.691   1.877 -0.2920 -0.0426  0.4563
 1394SOL    HW111181   1.595   3.786   1.895 -1.1905 -0.0479 -0.6594
 1394SOL    HW211182   1.595   3.634   1.955 -1.0635  0.4226  0.5546
 1395SOL     OW11183   5.097   6.346   2.927  0.3344 -0.6303 -0.6398
 1395SOL    HW111184   5.134   6.310   3.013  0.2151 -1.1155 -0.7895
 1395SOL    HW211185   5.159   6.325   2.852  1.7772  2.1404 -0.2913
 1396SOL     OW11186   6.782   6.108   4.062 -0.4070  0.3747 -0.3913
 1396SOL    HW111187   6.686   6.096   4.037 -0.5442  0.5129  0.0697
 1396SOL    HW211188   6.839   6.104   3.979 -0.7761 -0.0423 -0.6241
 1397SOL     OW11189   3.388   0.514   1.136  0.1511  0.2658  0.1419
 1397SOL    HW111190   3.441   0.541   1.055 -1.2022  1.2471 -0.4214
 1397SOL    HW211191   3.428   0.431   1.174  0.8477 -0.1928 -1.5086
 1398SOL     OW11192   4.001   5.585   0.573  0.6870 -0.4200 -0.9665
 1398SOL    HW111193   4.019   5.488   0.558  0.0699 -0.9692  1.6257
 1398SOL    HW211194   4.069   5.622   0.637  0.7021  0.7688 -1.6681
 1399SOL     OW11195   6.179   1.209   0.627  0.1938 -0.1290 -0.2620
 1399SOL    HW111196   6.210   1.195   0.721 -0.3660 -0.9788 -0.1940
 1399SOL    HW211197   6.233   1.152   0.565 -0.7258 -1.0548 -0.2255
 1400SOL     OW11198   4.651   6.608   3.995  0.0918 -0.5510 -0.2205
 1400SOL    HW111199   4.734   6.651   4.031 -0.4691  0.8325 -0.5609
 1400SOL    HW211200   4.601   6.566   4.071 -0.7288  1.7575  0.5693
 1401SOL     OW11201   2.053   0.130   2.774 -0.3819 -0.1245 -0.5171
 1401SOL    HW111202   1.966   0.093   2.804 -0.1501  0.0803  0.4264
 1401SOL    HW211203   2.108   0.155   2.854  0.4068  0.0496 -1.1064
 1402SOL     OW11204   3.186   0.327   3.032  0.6815  0.5900  0.1544
 1402SOL    HW111205   3.096   0.363   3.010 -0.4002 -2.5474 -0.8734
 1402SOL    HW211206   3.216   0.264   2.960  5.0710  3.7892 -1.0665
 1403SOL     OW11207   4.910   5.471   4.645  0.0980 -1.0673  0.1051
 1403SOL    HW111208   4.904   5.442   4.740  0.4051 -1.1045  0.1157
 1403SOL    HW211209   4.832   5.529   4.622  1.2618  0.9190  1.0634
 1404SOL     OW11210   4.560   5.618   3.343  0.0261  0.5860  0.1114
 1404SOL    HW111211   4.575   5.522   3.367 -1.1570 -0.0138 -1.4381
 1404SOL    HW211212   4.617   5.676   3.400  0.3226 -1.0095  1.4728
 1405SOL     OW11213   6.555   3.060   6.133 -0.0534 -0.2947  0.0467
 1405SOL    HW111214   6.477   3.087   6.076  0.4409 -1.8773 -1.4142
 1405SOL    HW211215   6.535   2.973   6.178  0.2970  0.0266  0.8189
 1406SOL     OW11216   4.037   2.195   7.039 -0.5760  0.0636  0.1056
 1406SOL    HW111217   3.977   2.126   7.078  1.0419 -1.0209  0.7206
 1406SOL    HW211218   4.132   2.166   7.047  0.0529  1.7161 -0.9147
 1407SOL     OW11219   5.276   3.363   2.573 -0.0407 -0.7018 -0.6679
 1407SOL    HW111220   5.341   3.430   2.538  0.5425 -0.7353  0.3297
 1407SOL    HW211221   5.187   3.378   2.530  0.0705  0.7346 -0.4239
 1408SOL     OW11222   1.922   4.091   4.234 -0.4616  0.0665 -0.1986
 1408SOL    HW111223   1.852   4.159   4.252 -0.4816  0.2384 -0.9409
 1408SOL    HW211224   1.880   4.005   4.208 -0.4134  0.0118 -0.0950
 1409SOL     OW11225   4.641   3.875   7.242 -0.1847 -0.1917 -0.6497
 1409SOL    HW111226   4.552   3.920   7.239  0.8800  2.0805  0.9977
 1409SOL    HW211227   4.688   3.887   7.155 -0.9019 -0.2136 -1.0433
 1410SOL     OW11228   4.385   0.179   6.337 -0.2121  0.0249  0.0615
 1410SOL    HW111229   4.286   0.173   6.347 -0.2344  1.6841  1.2061
 1410SOL    HW211230   4.419   0.257   6.391  1.6262 -0.0977 -0.8705
 1411SOL     OW11231   6.102   4.777   5.846  0.0533  0.2387 -0.6908
 1411SOL    HW111232   6.190   4.796   5.891 -0.1487 -0.7095  0.1113
 1411SOL    HW211233   6.041   4.855   5.858  0.6309  0.7186 -0.8659
 1412SOL     OW11234   6.071   7.045   6.771 -0.2084  0.7010  0.3162
 1412SOL    HW111235   6.071   7.103   6.689 -1.2307  0.0486 -0.1522
 1412SOL    HW211236   6.124   6.963   6.752  0.3260  0.9759  0.6174
 1413SOL     OW11237   4.643   1.448   6.882  0.0723 -0.2437  0.2718
 1413SOL    HW111238   4.650   1.428   6.979 -0.8249 -1.7035  0.0542
 1413SOL    HW211239   4.721   1.503   6.853 -1.0121  2.5324  2.3849
 1414SOL     OW11240   4.838   4.408   5.493 -0.2641  0.3967  0.5967
 1414SOL    HW111241   4.891   4.342   5.440 -0.7065 -1.5461  2.4952
 1414SOL    HW211242   4.895   4.488   5.514  0.1373  0.8676 -2.1076
 1415SOL     OW11243   4.665   1.410   0.440  0.3144  0.0355 -0.1335
 1415SOL    HW111244   4.676   1.434   0.537 -1.2999  0.4127 -0.0299
 1415SOL    HW211245   4.666   1.493   0.385  0.2149 -0.0914 -0.3264
 1416SOL     OW11246   4.302   4.864   5.787  0.0120 -0.3903  0.3515
 1416SOL    HW111247   4.297   4.773   5.744  0.5987 -0.2805  0.0449
 1416SOL    HW211248   4.334   4.854   5.881  0.4311 -0.4678  0.2019
 1417SOL     OW11249   3.018   3.974   6.225 -0.1289 -0.4640  0.2953
 1417SOL    HW111250   2.948   3.949   6.158  0.6733 -2.3630  0.1351
 1417SOL    HW211251   2.974   3.998   6.311 -0.9848 -1.6478  0.1977
 1418SOL     OW11252   6.031   2.057   0.424 -0.0225 -0.4953 -0.1297
 1418SOL    HW111253   5.962   2.072   0.494  1.1301  0.2002  0.8813
 1418SOL    HW211254   5.987   2.050   0.334 -1.7137 -3.2532  0.8316
 1419SOL     OW11255   0.937   1.809   7.001  0.4957 -0.3191  0.3112
 1419SOL    HW111256   0.861   1.834   6.942 -0.3521 -1.9622  0.6845
 1419SOL    HW211257   0.931   1.712   7.024  1.9947 -0.1774  1.3775
 1420SOL     OW11258   2.545   1.384   6.050 -0.5020  0.2679  0.3271
 1420SOL    HW111259   2.527   1.481   6.033 -0.5850  0.2445  0.2824
 1420SOL    HW211260   2.492   1.328   5.986  0.1512  0.2139 -0.1709
 1421SOL     OW11261   4.472   2.142   0.018  0.0592  0.2829  0.0545
 1421SOL    HW111262   4.373   2.158   0.010 -0.0445  0.8015  2.0017
 1421SOL    HW211263   4.521   2.227   0.002  0.1302  0.2108 -0.1037
 1422SOL     OW11264   5.197   0.574   1.549  0.5817  0.2080  0.3959
 1422SOL    HW111265   5.120   0.512   1.539 -0.9909  2.0799  0.5945
 1422SOL    HW211266   5.218   0.617   1.461  0.5470  0.6770  0.6134
 1423SOL     OW11267   5.240   6.437   4.119 -0.3109 -0.2482 -0.4852
 1423SOL    HW111268   5.219   6.453   4.215  0.4478 -0.3820 -0.2920
 1423SOL    HW211269   5.292   6.352   4.110  2.8917  1.6421 -0.5846
 1424SOL     OW11270   6.792   6.790   3.312  0.5363  0.1029 -0.0072
 1424SOL    HW111271   6.868   6.768   3.251  1.5311  0.1847  1.1594
 1424SOL    HW211272   6.816   6.870   3.368 -0.3037 -0.0269  0.5551
 1425SOL     OW11273   3.293   1.859   7.328 -0.3106 -0.4692 -0.0158
 1425SOL    HW111274   3.195   1.855   7.306 -0.1184  0.6628 -1.1106
 1425SOL    HW211275   3.336   1.933   7.277  1.0239 -0.6002  0.8863
 1426SOL     OW11276   6.184   2.306   3.773 -0.0824  0.5706  0.2242
 1426SOL    HW111277   6.281   2.329   3.784 -0.1965  0.7242  0.9150
 1426SOL    HW211278   6.145   2.280   3.861 -0.3375 -0.8333 -0.2923
 1427SOL     OW11279   4.859   3.448   0.133 -0.5489  0.3436  0.0409
 1427SOL    HW111280   4.904   3.431   0.045  0.8151  3.4550  0.0744
 1427SOL    HW211281   4.771   3.401   0.135  0.8481 -2.5203 -1.6538
 1428SOL     OW11282   4.905   0.525   0.463  0.1250  0.4188 -0.4359
 1428SOL    HW111283   4.845   0.580   0.405 -1.0306  0.4065  0.7262
 1428SOL    HW211284   4.970   0.585   0.509  1.3382  0.3835 -2.0557
 1429SOL     OW11285   4.698   6.776   1.447  0.2043  0.4536  0.3314
 1429SOL    HW111286   4.598   6.786   1.439  0.2374 -0.5639 -1.5475
 1429SOL    HW211287   4.721   6.748   1.540 -1.4708 -1.7267  0.1323
 1430SOL     OW11288   1.741   2.065   5.471  0.3423  0.3362  0.3768
 1430SOL    HW111289   1.762   1.968   5.460  1.4790  0.8359 -2.0062
 1430SOL    HW211290   1.650   2.075   5.512  0.2392 -1.7233  0.6848
 1431SOL     OW11291   5.225   1.398   7.251 -0.2351 -0.0376 -0.2835
 1431SOL    HW111292   5.172   1.482   7.238  0.2505  0.0787 -1.5632
 1431SOL    HW211293   5.232   1.349   7.165  2.5558  0.4364 -0.3966
 1432SOL     OW11294   1.958   6.897   5.887  0.4901 -0.1952  0.5713
 1432SOL    HW111295   2.048   6.937   5.872  0.6880 -0.4976  0.9493
 1432SOL    HW211296   1.953   6.807   5.843 -0.3332  0.7161 -1.2469
 1433SOL     OW11297   4.823   5.113   5.797  0.2668 -0.4233 -0.0949
 1433SOL    HW111298   4.909   5.065   5.782  0.6802  0.2782  0.0230
 1433SOL    HW211299   4.819   5.195   5.740 -0.4334 -0.5893 -0.2930
 1434SOL     OW11300   1.260   2.295   1.636 -0.1682 -1.1586  0.1408
 1434SOL    HW111301   1.284   2.382   1.593 -0.1779 -1.4882 -0.5344
 1434SOL    HW211302   1.229   2.230   1.566 -1.3922 -1.2876  0.8047
 1435SOL     OW11303   5.679   3.339   0.723 -0.3081  0.7238 -0.1606
 1435SOL    HW111304   5.614   3.293   0.783 -0.8572  0.0998 -1.2313
 1435SOL    HW211305   5.753   3.378   0.778 -1.0384  0.5469  0.9597
 1436SOL     OW11306   7.011   1.694   3.968  0.1173  0.1449  0.0205
 1436SOL    HW111307   7.077   1.677   3.895 -0.6599  0.5639 -0.7914
 1436SOL    HW211308   6.992   1.792   3.973 -0.5617  0.0101  0.1476
 1437SOL     OW11309   3.190   0.163   2.803  0.0255  0.2980  0.2016
 1437SOL    HW111310   3.259   0.145   2.733 -0.1667 -0.4337  0.2058
 1437SOL    HW211311   3.101   0.176   2.759 -0.1947 -0.7011  0.3576
 1438SOL     OW11312   4.188   0.548   4.070 -0.3887 -0.4141 -0.4788
 1438SOL    HW111313   4.207   0.553   3.972 -1.0774  1.3960 -0.5328
 1438SOL    HW211314   4.103   0.596   4.091 -0.8953 -1.8174  0.8508
 1439SOL     OW11315   2.595   3.917   0.593  0.4008  0.6703 -0.2035
 1439SOL    HW111316   2.510   3.969   0.579  0.1116 -0.0478 -1.1846
 1439SOL    HW211317   2.575   3.819   0.589  1.0432  0.4797  1.0311
 1440SOL     OW11318   2.893   1.883   7.211 -0.0909 -0.4623 -0.1138
 1440SOL    HW111319   2.866   1.795   7.175 -1.3900 -0.4439  0.7853
 1440SOL    HW211320   2.812   1.937   7.234  0.6684  1.1259 -1.0113
 1441SOL     OW11321   4.076   5.485   2.749 -0.0886 -0.4088 -0.0404
 1441SOL    HW111322   4.026   5.520   2.828 -1.7284 -0.1186 -1.1709
 1441SOL    HW211323   4.013   5.476   2.671  0.8883 -3.2097 -0.5749
 1442SOL     OW11324   1.066   0.955   3.632  0.7259 -0.2476  0.5670
 1442SOL    HW111325   1.064   0.997   3.722  3.0656  1.5119 -0.1531
 1442SOL    HW211326   0.974   0.923   3.608 -0.3498  1.1570  2.6826
 1443SOL     OW11327   4.361   4.082   4.625 -0.0199 -0.4306  0.3014
 1443SOL    HW111328   4.407   4.156   4.674 -1.3258  1.0315 -0.6089
 1443SOL    HW211329   4.266   4.075   4.656 -0.1114 -1.2366 -0.1504
 1444SOL     OW11330   2.868   3.884   4.953  0.6115 -0.2569  0.1788
 1444SOL    HW111331   2.859   3.889   5.052  1.3919 -0.1138  0.2466
 1444SOL    HW211332   2.960   3.911   4.926  0.5568 -0.7598 -0.5447
 1445SOL     OW11333   3.230   3.124   1.373  0.1886 -0.3941 -0.3852
 1445SOL    HW111334   3.166   3.049   1.361 -0.6297  0.3839 -0.9339
 1445SOL    HW211335   3.182   3.204   1.408  0.9947 -0.0298 -0.0954
 1446SOL     OW11336   7.063   7.109   6.288 -0.3986 -0.1470 -0.0877
 1446SOL    HW111337   7.105   7.196   6.261 -1.5584  1.2883  2.5973
 1446SOL    HW211338   7.088   7.038   6.221  2.3237  1.7380 -1.1579
 1447SOL     OW11339   5.647   6.897   3.665 -0.3392 -0.7398 -0.0274
 1447SOL    HW111340   5.729   6.930   3.712  0.0452 -4.7678  2.3602
 1447SOL    HW211341   5.668   6.883   3.569  0.8055  1.3756 -0.1190
 1448SOL     OW11342   3.509   6.151   2.723 -0.3761  0.0743 -0.0050
 1448SOL    HW111343   3.603   6.120   2.734 -0.7378 -0.8503  0.5281
 1448SOL    HW211344   3.446   6.077   2.747 -1.2501  1.0079  0.6398
 1449SOL     OW11345   3.066   1.027   4.738  0.0250 -0.0149  0.3711
 1449SOL    HW111346   3.011   1.071   4.667 -1.4553  0.1410  1.5893
 1449SOL    HW211347   3.102   1.096   4.800 -0.6266 -0.3280  1.1136
 1450SOL     OW11348   3.100   4.120   5.722  0.8985  0.5678  0.1368
 1450SOL    HW111349   3.185   4.171   5.710  0.1437  1.7611 -0.1813
 1450SOL    HW211350   3.027   4.183   5.747 -0.3432 -0.1807 -1.5650
 1451SOL     OW11351   3.954   7.015   7.009  0.3156  0.2377  0.4264
 1451SOL    HW111352   4.017   6.941   6.989  0.4478  0.1894  1.0080
 1451SOL    HW211353   3.914   7.049   6.924  0.4173 -0.3514  0.1425
 1452SOL     OW11354   3.919   1.889   5.056 -0.2290 -0.2266  0.1669
 1452SOL    HW111355   3.854   1.842   4.996  1.2859 -0.3309 -1.4226
 1452SOL    HW211356   3.993   1.928   5.002  1.0272 -0.0707  1.9463
 1453SOL     OW11357   5.303   7.091   7.084  0.3544  0.3878 -0.4249
 1453SOL    HW111358   5.252   7.007   7.099 -0.8363  1.2589  0.5066
 1453SOL    HW211359   5.369   7.077   7.010 -0.8591 -0.9246 -1.2969
 1454SOL     OW11360   5.020   4.205   5.396  0.1732 -0.3902  0.2083
 1454SOL    HW111361   5.086   4.267   5.354 -0.2034  0.3457  0.6917
 1454SOL    HW211362   5.069   4.129   5.439  0.7503  0.4230  1.0121
 1455SOL     OW11363   6.182   4.358   3.462 -0.3138  0.0045 -0.2352
 1455SOL    HW111364   6.191   4.373   3.560  1.3090 -1.0027 -0.2096
 1455SOL    HW211365   6.159   4.262   3.445 -0.8523  0.2363 -0.8233
 1456SOL     OW11366   6.263   3.187   5.137  0.1315  0.3169 -0.0739
 1456SOL    HW111367   6.315   3.224   5.060  1.3740 -1.3771 -0.0693
 1456SOL    HW211368   6.179   3.146   5.103 -0.2600  1.2932 -0.3059
 1457SOL     OW11369   2.746   4.461   5.754 -0.3851 -0.3725 -0.2917
 1457SOL    HW111370   2.655   4.492   5.724 -0.1728  0.6787  0.1028
 1457SOL    HW211371   2.810   4.538   5.747  0.0488 -0.5991  1.1991
 1458SOL     OW11372   1.201   5.090   3.098  0.2545  0.2450 -0.2489
 1458SOL    HW111373   1.183   5.012   3.158 -0.4474  0.9090  0.4071
 1458SOL    HW211374   1.126   5.099   3.032 -0.5448  1.3886  0.7755
 1459SOL     OW11375   5.089   3.412   6.307  0.4234 -0.3419 -0.1950
 1459SOL    HW111376   5.147   3.479   6.260 -0.7188  0.5471 -0.3605
 1459SOL    HW211377   5.000   3.453   6.327 -0.0695 -1.6135  0.2717
 1460SOL     OW11378   5.703   0.405   3.728  0.6871 -0.3702 -0.1795
 1460SOL    HW111379   5.746   0.339   3.667 -0.6799 -2.1342  0.7150
 1460SOL    HW211380   5.618   0.439   3.687  1.8938  1.6340 -1.0843
 1461SOL     OW11381   3.647   6.434   0.445  0.0052 -0.3344  0.0447
 1461SOL    HW111382   3.721   6.372   0.419 -1.5195 -2.1089 -0.1146
 1461SOL    HW211383   3.573   6.428   0.378 -1.4509 -0.6323  1.6428
 1462SOL     OW11384   2.327   3.341   2.167 -0.1849  0.1129  0.2725
 1462SOL    HW111385   2.383   3.263   2.140  1.2079  0.9549  0.6280
 1462SOL    HW211386   2.312   3.339   2.266  0.1689  0.4941  0.3343
 1463SOL     OW11387   0.862   0.009   5.918 -0.0632  0.3435  0.0454
 1463SOL    HW111388   0.817   0.096   5.900 -2.3046 -0.9665 -0.7629
 1463SOL    HW211389   0.939  -0.002   5.855  0.5972  1.9853  0.5449
 1464SOL     OW11390   0.207   3.708   6.944 -0.6394  0.6354  0.3624
 1464SOL    HW111391   0.286   3.650   6.966 -1.2073  0.5438  2.2822
 1464SOL    HW211392   0.183   3.762   7.025 -2.4184  0.8232 -0.2751
 1465SOL     OW11393   4.110   7.312   3.240 -0.1810  0.2860  0.2039
 1465SOL    HW111394   4.096   7.348   3.148  0.0377  0.7164  0.3368
 1465SOL    HW211395   4.201   7.272   3.247  0.8520  2.6566  0.9916
 1466SOL     OW11396   6.370   6.980   4.617 -0.3976  0.4820  0.0424
 1466SOL    HW111397   6.406   6.896   4.658 -2.2004 -0.4576 -0.2107
 1466SOL    HW211398   6.378   7.055   4.682 -0.6635 -0.3670  1.0772
 1467SOL     OW11399   4.221   1.505   3.928 -0.4549  0.2194 -0.7428
 1467SOL    HW111400   4.158   1.442   3.882  0.5063 -0.5042 -1.0968
 1467SOL    HW211401   4.250   1.575   3.863 -0.8488  0.5228 -0.5943
 1468SOL     OW11402   4.118   3.707   1.915 -0.2980  0.1048 -0.3303
 1468SOL    HW111403   4.178   3.658   1.852 -2.7801 -2.2853 -0.8928
 1468SOL    HW211404   4.053   3.644   1.956  1.7911  1.3878  5.4217
 1469SOL     OW11405   4.870   2.055   3.619 -0.2465 -0.1844 -0.2009
 1469SOL    HW111406   4.843   2.151   3.628  0.0796 -0.0776 -0.3692
 1469SOL    HW211407   4.966   2.045   3.644  0.2317 -0.1518 -1.9817
 1470SOL     OW11408   5.670   1.955   1.993  0.0491  0.3802 -0.6362
 1470SOL    HW111409   5.637   2.049   2.002 -1.1091 -0.1183  0.3729
 1470SOL    HW211410   5.736   1.950   1.918  3.0163  2.7799  1.7048
 1471SOL     OW11411   2.884   1.541   5.670  0.2139  0.3155 -0.4208
 1471SOL    HW111412   2.948   1.532   5.594 -0.7294  1.4208 -1.3777
 1471SOL    HW211413   2.817   1.467   5.667  0.8531 -0.2782 -0.0041
 1472SOL     OW11414   2.987   4.348   4.907  0.2081 -0.0485  0.2077
 1472SOL    HW111415   2.928   4.271   4.932  1.4978 -0.8851  0.7392
 1472SOL    HW211416   2.984   4.417   4.980  0.7286 -0.5862  0.7447
 1473SOL     OW11417   6.767   2.206   3.861  0.3148 -0.0725  0.5983
 1473SOL    HW111418   6.791   2.213   3.957 -0.2665  0.8631  0.6841
 1473SOL    HW211419   6.731   2.115   3.841 -0.7116  0.1389  1.5192
 1474SOL     OW11420   1.645   2.840   5.568  0.2205 -0.0626 -0.0775
 1474SOL    HW111421   1.652   2.747   5.603 -1.6191 -0.2006 -0.0247
 1474SOL    HW211422   1.556   2.878   5.592  0.6441  1.4228 -0.7964
 1475SOL     OW11423   6.941   1.502   2.003 -0.2224  0.0768  0.1542
 1475SOL    HW111424   6.852   1.458   1.988 -0.5696  0.8706 -0.1503
 1475SOL    HW211425   7.010   1.432   2.022 -0.4278 -0.7295 -1.9250
 1476SOL     OW11426   3.411   0.457   3.856  0.5112 -0.1457  0.3634
 1476SOL    HW111427   3.449   0.540   3.897  0.7104 -0.8777  1.6958
 1476SOL    HW211428   3.441   0.377   3.909  0.0876 -1.0374 -0.7323
 1477SOL     OW11429   6.671   2.987   4.737 -0.2974 -0.4641 -0.2732
 1477SOL    HW111430   6.634   3.067   4.783  1.3909 -0.1650  0.5983
 1477SOL    HW211431   6.627   2.905   4.772  0.2612 -0.1602  1.1919
 1478SOL     OW11432   1.779   3.915   3.946 -0.4651 -0.4865  0.2884
 1478SOL    HW111433   1.826   4.003   3.952  0.1282 -0.8801  1.5112
 1478SOL    HW211434   1.749   3.887   4.038  0.4371 -2.1477  0.0852
 1479SOL     OW11435   5.521   5.088   6.858 -0.5880  0.1173  0.2348
 1479SOL    HW111436   5.576   5.121   6.934  0.1985  1.4305 -0.8681
 1479SOL    HW211437   5.549   4.995   6.834 -0.3662 -0.0415  1.0895
 1480SOL     OW11438   4.221   1.831   6.830 -0.0312 -0.8413 -0.0073
 1480SOL    HW111439   4.137   1.781   6.847  0.0053 -1.3900 -1.3953
 1480SOL    HW211440   4.248   1.820   6.734 -0.5456  2.6021 -0.6243
 1481SOL     OW11441   7.212   1.524   0.099 -0.1031 -0.5302 -0.1340
 1481SOL    HW111442   7.296   1.509   0.152  0.8953 -0.4498 -1.6663
 1481SOL    HW211443   7.181   1.618   0.114  0.7356 -0.1923 -0.4701
 1482SOL     OW11444   6.047   5.263   5.783 -0.2527  0.1243  0.0737
 1482SOL    HW111445   6.104   5.242   5.863 -0.9979  0.1215  0.6056
 1482SOL    HW211446   6.040   5.362   5.773  0.7984  0.1251 -0.6750
 1483SOL     OW11447   0.397   1.220   3.462 -0.1467  0.5210 -0.0495
 1483SOL    HW111448   0.406   1.132   3.416  0.8706 -0.2711  1.6267
 1483SOL    HW211449   0.306   1.258   3.444 -1.0552 -1.4632  0.2698
 1484SOL     OW11450   1.824   4.451   4.132  0.1947  0.1288 -0.4138
 1484SOL    HW111451   1.877   4.482   4.211 -1.0628 -0.1094  0.5596
 1484SOL    HW211452   1.877   4.462   4.049  1.0481  1.6670  0.3115
 1485SOL     OW11453   4.111   1.193   4.184 -0.0710 -0.3738  0.0661
 1485SOL    HW111454   4.093   1.096   4.198  0.3694 -0.2303  1.8261
 1485SOL    HW211455   4.207   1.206   4.161 -0.4075 -0.4530 -1.4250
 1486SOL     OW11456   1.943   5.242   4.485 -0.6522 -0.1479 -0.2757
 1486SOL    HW111457   1.949   5.151   4.525 -0.0360 -1.9805 -4.2974
 1486SOL    HW211458   2.018   5.299   4.519 -0.5106 -1.3929  1.5720
 1487SOL     OW11459   3.613   4.048   6.336  0.1248 -0.2006  0.5599
 1487SOL    HW111460   3.588   4.114   6.265  1.1377  0.1944  0.5593
 1487SOL    HW211461   3.582   3.957   6.308 -1.0404  0.2283  0.4364
 1488SOL     OW11462   4.872   0.493   2.614 -0.9028  0.1238  0.1100
 1488SOL    HW111463   4.890   0.514   2.518 -1.7352 -1.1441 -0.3251
 1488SOL    HW211464   4.776   0.507   2.635 -1.0752 -1.2560  0.3163
 1489SOL     OW11465   4.361   3.172   0.529  0.2310  0.1132 -0.1337
 1489SOL    HW111466   4.330   3.248   0.586  0.6933  0.0691  0.1881
 1489SOL    HW211467   4.455   3.148   0.555 -0.4589 -1.5915  0.8467
 1490SOL     OW11468   5.447   4.396   7.125  0.3702  0.1441  0.2259
 1490SOL    HW111469   5.526   4.378   7.184  1.5847 -0.8213 -1.6586
 1490SOL    HW211470   5.393   4.312   7.115  0.1364  0.3222 -0.0040
 1491SOL     OW11471   0.276   0.785   5.671  0.4074  0.3257  0.1548
 1491SOL    HW111472   0.342   0.734   5.618  0.2905  2.0824 -1.7431
 1491SOL    HW211473   0.322   0.830   5.748  1.2866  0.8377 -0.6546
 1492SOL     OW11474   4.032   2.578   0.525  0.9034 -0.4614 -0.3947
 1492SOL    HW111475   4.023   2.660   0.469  0.5596 -0.6333 -0.5878
 1492SOL    HW211476   3.941   2.547   0.554  1.0860 -0.2479  0.4390
 1493SOL     OW11477   7.061   1.892   7.106  0.1326  0.0130 -0.0368
 1493SOL    HW111478   7.030   1.876   7.200 -0.4769 -2.1843 -0.5718
 1493SOL    HW211479   7.079   1.804   7.062  1.2733  1.0513 -1.7005
 1494SOL     OW11480   0.060   2.741   7.191 -0.2603  0.5807 -0.0433
 1494SOL    HW111481   0.053   2.647   7.224  0.5223  0.3494 -0.5301
 1494SOL    HW211482   0.045   2.743   7.092 -0.9286  1.0562  0.0605
 1495SOL     OW11483   5.784   3.323   2.986  0.3748 -0.0305  0.0728
 1495SOL    HW111484   5.819   3.260   2.916  0.0725 -0.8623  0.6647
 1495SOL    HW211485   5.701   3.367   2.953 -0.0829 -0.8496  0.1300
 1496SOL     OW11486   3.453   6.604   0.559 -0.2168  0.1717  0.1226
 1496SOL    HW111487   3.514   6.533   0.525 -0.6963 -0.0040 -0.3766
 1496SOL    HW211488   3.418   6.579   0.649 -1.5546 -0.9163 -0.6998
 1497SOL     OW11489   6.549   3.480   6.089 -0.0780  0.1106  0.0103
 1497SOL    HW111490   6.639   3.437   6.085 -0.8337 -1.4580 -0.8435
 1497SOL    HW211491   6.492   3.443   6.016 -1.6853  0.4750  1.0631
 1498SOL     OW11492   3.049   2.178   3.982  0.3015  0.0905  0.8973
 1498SOL    HW111493   2.988   2.149   3.908 -0.9946  2.4966  0.9834
 1498SOL    HW211494   3.004   2.162   4.070  0.6018  0.0264  1.0385
 1499SOL     OW11495   6.379   3.083   2.686  0.3080  0.4702 -0.7427
 1499SOL    HW111496   6.352   2.994   2.721  0.1228  0.7748 -0.1144
 1499SOL    HW211497   6.461   3.073   2.630  0.5428 -0.0304 -0.3145
 1500SOL     OW11498   0.830   1.408   0.190 -0.7062 -0.3257  0.6722
 1500SOL    HW111499   0.791   1.481   0.246 -0.8757 -1.6533  2.3359
 1500SOL    HW211500   0.768   1.330   0.189 -0.6268 -0.3793 -1.2666
 1501SOL     OW11501   1.462   4.923   5.441  0.0465 -0.6983 -0.1969
 1501SOL    HW111502   1.461   5.018   5.473 -1.7789 -0.8314  0.1897
 1501SOL    HW211503   1.553   4.901   5.405  0.5927  1.0797  0.0425
 1502SOL     OW11504   0.891   4.466   7.101 -0.0156 -0.4320  0.4392
 1502SOL    HW111505   0.849   4.399   7.163 -1.2483  0.1691  0.2775
 1502SOL    HW211506   0.954   4.419   7.039  1.1161 -1.0655  2.0342
 1503SOL     OW11507   5.728   4.732   3.225  0.2016 -0.7689 -0.2921
 1503SOL    HW111508   5.692   4.664   3.161  0.3925 -0.2829 -0.9213
 1503SOL    HW211509   5.707   4.704   3.319  0.5202 -1.8268 -0.5333
 1504SOL     OW11510   4.265   0.403   3.251 -0.2132  0.1148 -0.1908
 1504SOL    HW111511   4.167   0.386   3.237 -0.0122 -1.3989  0.1354
 1504SOL    HW211512   4.312   0.316   3.264  1.2010  0.8297 -0.4324
 1505SOL     OW11513   3.810   6.188   0.745 -0.4334  0.2902 -0.0611
 1505SOL    HW111514   3.808   6.089   0.757 -2.6273  0.1598 -1.3180
 1505SOL    HW211515   3.718   6.225   0.752  0.2160  2.1020 -0.7488
 1506SOL     OW11516   6.880   3.294   1.645  0.3927 -0.2248 -0.1730
 1506SOL    HW111517   6.851   3.280   1.740  1.5444 -1.7383 -0.0255
 1506SOL    HW211518   6.884   3.392   1.626 -1.7584  0.0668  0.7284
 1507SOL     OW11519   3.633   5.735   2.348  0.0842  0.3565 -0.7010
 1507SOL    HW111520   3.698   5.765   2.418 -2.2921 -0.6442  2.0175
 1507SOL    HW211521   3.658   5.644   2.316  1.0983  0.7558 -1.0620
 1508SOL     OW11522   4.944   4.954   0.980  0.0225  0.5024  0.9355
 1508SOL    HW111523   4.862   4.994   0.940  0.1622 -0.5035 -0.4273
 1508SOL    HW211524   5.023   5.013   0.962  0.5129 -1.0021 -2.4423
 1509SOL     OW11525   2.482   4.352   1.745 -0.0938  0.4860 -0.2269
 1509SOL    HW111526   2.419   4.415   1.700  0.0671  0.7231 -0.1246
 1509SOL    HW211527   2.545   4.314   1.677 -0.5989 -0.0550 -0.3940
 1510SOL     OW11528   3.893   7.288   2.103  0.5904  0.2460  0.4216
 1510SOL    HW111529   3.815   7.308   2.163  1.1113 -1.5855  1.7378
 1510SOL    HW211530   3.935   7.202   2.131  1.3198 -0.2490 -2.1083
 1511SOL     OW11531   0.294   5.491   5.598 -0.8068  0.0772  0.1244
 1511SOL    HW111532   0.210   5.537   5.570 -2.1622 -2.0118  0.6371
 1511SOL    HW211533   0.368   5.515   5.534 -2.2554  0.4523 -1.4509
 1512SOL     OW11534   5.436   3.609   2.542  0.2260 -0.2114 -0.4311
 1512SOL    HW111535   5.515   3.656   2.503 -1.2246  2.3384 -0.4128
 1512SOL    HW211536   5.415   3.648   2.631 -0.0164 -2.0510  0.3338
 1513SOL     OW11537   5.559   3.263   1.941  0.1891  0.5889  0.3379
 1513SOL    HW111538   5.594   3.295   2.029  1.5466 -0.4729  0.2041
 1513SOL    HW211539   5.630   3.276   1.871 -0.1946 -0.2980 -0.2192
 1514SOL     OW11540   1.120   2.230   3.685 -0.2469  0.0012 -0.3501
 1514SOL    HW111541   1.053   2.299   3.657 -1.5407 -1.2226 -0.2898
 1514SOL    HW211542   1.161   2.190   3.603  0.7815  1.0691 -0.3854
 1515SOL     OW11543   2.261   0.285   6.657 -0.1265  0.4046 -0.0670
 1515SOL    HW111544   2.199   0.292   6.579  1.6356  0.2177 -1.5342
 1515SOL    HW211545   2.230   0.212   6.717 -1.9422  1.0586 -0.1753
 1516SOL     OW11546   2.152   0.878   2.009  0.7660 -0.1808  0.2645
 1516SOL    HW111547   2.196   0.890   1.920  0.8425  1.3544  0.4970
 1516SOL    HW211548   2.123   0.967   2.044 -1.4333 -1.0401  0.6797
 1517SOL     OW11549   5.607   1.323   5.256  0.4255  0.1301  0.0562
 1517SOL    HW111550   5.628   1.260   5.182 -0.7160  1.4243 -1.3906
 1517SOL    HW211551   5.519   1.298   5.297  0.8250 -0.2843  0.6841
 1518SOL     OW11552   4.965   5.658   6.997 -0.4942  0.0626 -0.8926
 1518SOL    HW111553   4.870   5.640   6.970 -0.8856 -0.6823  0.8826
 1518SOL    HW211554   4.973   5.750   7.035 -0.2961  0.4650 -1.8735
 1519SOL     OW11555   5.252   1.311   0.140  0.0401 -0.3124 -0.5034
 1519SOL    HW111556   5.243   1.353   0.050  1.0416  0.2420 -0.3498
 1519SOL    HW211557   5.165   1.319   0.189 -0.1782  0.3715 -0.9915
 1520SOL     OW11558   6.626   2.391   4.856  0.1044  0.4018  0.2549
 1520SOL    HW111559   6.578   2.417   4.772  1.2768 -0.4640 -0.6941
 1520SOL    HW211560   6.652   2.473   4.906  0.9959  0.9960 -1.1416
 1521SOL     OW11561   6.516   0.284   1.681  0.1857  0.1231 -0.2156
 1521SOL    HW111562   6.527   0.372   1.726 -1.5078  0.3719 -0.2781
 1521SOL    HW211563   6.525   0.295   1.582  0.0379  0.2020 -0.2192
 1522SOL     OW11564   4.056   7.357   6.759  0.0904  0.1932  0.3193
 1522SOL    HW111565   4.086   7.262   6.766 -2.0458 -0.5762 -0.5039
 1522SOL    HW211566   4.054   7.384   6.662 -0.0749  0.8065  0.4918
 1523SOL     OW11567   3.266   4.879   3.749  0.0494  0.3146  0.2755
 1523SOL    HW111568   3.304   4.937   3.678 -0.3105 -0.4381 -0.5390
 1523SOL    HW211569   3.296   4.784   3.735  1.0631  0.3731  1.8840
 1524SOL     OW11570   3.608   6.962   6.879  0.1254  0.8627 -0.0236
 1524SOL    HW111571   3.700   7.003   6.873  0.4108  0.5376  1.9004
 1524SOL    HW211572   3.541   7.029   6.847  1.1677  0.3899 -3.4345
 1525SOL     OW11573   0.245   0.528   0.178 -0.4495  0.3301 -0.2777
 1525SOL    HW111574   0.169   0.464   0.168  0.8984 -1.7163  1.7535
 1525SOL    HW211575   0.230   0.586   0.258  0.3230 -0.4027  0.4069
 1526SOL     OW11576   2.454   2.733   2.294 -0.6455 -0.1679  0.1748
 1526SOL    HW111577   2.496   2.753   2.382  1.5026  1.8531 -1.2559
 1526SOL    HW211578   2.420   2.817   2.252  0.5086 -0.7257 -1.9664
 1527SOL     OW11579   5.691   0.623   4.216 -0.0298 -0.8056  0.7958
 1527SOL    HW111580   5.750   0.552   4.178 -0.3818 -1.0683  0.7340
 1527SOL    HW211581   5.673   0.605   4.312  2.4912  0.9413  1.6503
 1528SOL     OW11582   6.831   5.927   2.396  0.6138  0.1873  0.1372
 1528SOL    HW111583   6.757   5.983   2.434 -0.7378 -1.3478 -0.2106
 1528SOL    HW211584   6.830   5.837   2.440  2.4619  0.2506  0.3292
 1529SOL     OW11585   0.208   3.187   5.990  0.7194  0.1279 -0.2084
 1529SOL    HW111586   0.110   3.171   6.002  0.4112  2.1850  0.3050
 1529SOL    HW211587   0.225   3.226   5.899  1.1042 -0.5518 -0.4308
 1530SOL     OW11588   3.179   7.328   7.256  0.2797 -0.3440  0.6631
 1530SOL    HW111589   3.125   7.317   7.339 -1.2124 -2.0291 -0.5010
 1530SOL    HW211590   3.134   7.395   7.196  1.3365  0.8484  1.1836
 1531SOL     OW11591   7.150   5.240   4.844  0.3374  0.2942  0.2494
 1531SOL    HW111592   7.208   5.163   4.871  0.7095  0.8467  1.0414
 1531SOL    HW211593   7.115   5.286   4.926  1.0359  1.6645 -0.2104
 1532SOL     OW11594   0.472   7.333   5.319 -0.2774  0.5095 -0.2572
 1532SOL    HW111595   0.503   7.347   5.413 -0.6149 -1.6736  0.2224
 1532SOL    HW211596   0.407   7.405   5.293 -0.3833  0.9793  1.2839
 1533SOL     OW11597   0.829   0.968   6.113 -0.1714 -0.8741  0.2198
 1533SOL    HW111598   0.913   0.925   6.082  0.2701  0.8703 -1.1066
 1533SOL    HW211599   0.850   1.038   6.181 -0.4662 -0.0156 -0.5586
 1534SOL     OW11600   3.971   6.614   5.674  0.5153 -0.0023 -0.1443
 1534SOL    HW111601   3.963   6.516   5.657  2.7203  0.0594 -1.7709
 1534SOL    HW211602   4.059   6.634   5.718  0.0060  1.2443  0.3613
 1535SOL     OW11603   3.085   7.087   3.631 -0.3054 -0.2648 -0.3024
 1535SOL    HW111604   3.144   7.027   3.685 -0.4261  1.2449  1.6007
 1535SOL    HW211605   3.115   7.182   3.645 -1.2878  0.2592 -1.7500
 1536SOL     OW11606   1.027   1.065   7.333 -0.3804 -0.1109 -0.1999
 1536SOL    HW111607   1.001   1.161   7.319 -1.1457 -0.3199 -0.2643
 1536SOL    HW211608   0.974   1.008   7.270 -2.4365 -0.9037  2.1938
 1537SOL     OW11609   4.401   5.380   5.071 -0.2207 -0.2503  0.6475
 1537SOL    HW111610   4.354   5.469   5.069 -0.9800 -0.6601 -0.6499
 1537SOL    HW211611   4.334   5.309   5.094 -0.0124 -0.7123 -0.1794
 1538SOL     OW11612   0.971   2.887   0.129 -0.0926 -0.2978 -0.2420
 1538SOL    HW111613   1.053   2.880   0.072 -0.4248  3.4015 -1.3141
 1538SOL    HW211614   0.891   2.902   0.071 -1.1401 -1.2381  0.9396
 1539SOL     OW11615   0.445   0.676   4.817 -0.9935 -0.2412  0.3759
 1539SOL    HW111616   0.356   0.635   4.795 -0.2701  0.0739 -3.5310
 1539SOL    HW211617   0.516   0.629   4.765  0.6344  1.9945  0.5219
 1540SOL     OW11618   7.101   5.347   4.585  0.0333  0.5359  0.0151
 1540SOL    HW111619   7.067   5.283   4.516 -0.4103  1.9593 -1.1124
 1540SOL    HW211620   7.111   5.300   4.672 -2.6302 -0.4848 -0.1960
 1541SOL     OW11621   6.710   5.619   1.252 -0.2057  0.4900  0.1369
 1541SOL    HW111622   6.625   5.599   1.300 -1.0305 -0.6408 -1.7217
 1541SOL    HW211623   6.768   5.678   1.308 -1.3534 -0.3684  2.2581
 1542SOL     OW11624   2.956   5.703   2.970 -0.3528  0.0078  0.1234
 1542SOL    HW111625   2.968   5.740   3.062 -0.0268  2.8533 -1.0098
 1542SOL    HW211626   2.860   5.707   2.945 -0.2826  0.3274 -0.0962
 1543SOL     OW11627   1.140   3.258   6.642 -0.4260 -0.9864 -0.5507
 1543SOL    HW111628   1.127   3.177   6.699 -0.0831 -2.2592 -2.1997
 1543SOL    HW211629   1.178   3.229   6.554  2.7972  1.3138  0.0008
 1544SOL     OW11630   6.858   4.454   5.448 -0.3577 -0.1348 -0.6381
 1544SOL    HW111631   6.841   4.552   5.449  1.3004  0.1804 -1.3337
 1544SOL    HW211632   6.938   4.435   5.390  0.1084 -1.7597  0.5118
 1545SOL     OW11633   3.790   2.364   5.962  0.1097 -0.2978 -0.0979
 1545SOL    HW111634   3.851   2.441   5.980  0.1138 -0.6007  1.1889
 1545SOL    HW211635   3.814   2.322   5.874  0.2510  1.0159 -0.6965
 1546SOL     OW11636   5.923   6.523   3.575  0.6543 -0.4665 -0.2500
 1546SOL    HW111637   5.974   6.527   3.490  0.2101  3.3640 -0.4173
 1546SOL    HW211638   5.835   6.479   3.559  0.9240 -0.5479 -1.5507
 1547SOL     OW11639   5.327   0.364   6.535  0.3666  0.1531  0.2109
 1547SOL    HW111640   5.411   0.315   6.558  0.4418  0.4140  0.4997
 1547SOL    HW211641   5.327   0.385   6.437  0.8515  0.5558  0.2935
 1548SOL     OW11642   4.134   1.740   0.087  0.1578 -0.6169 -0.5779
 1548SOL    HW111643   4.231   1.718   0.097  0.6818  0.9163 -1.9674
 1548SOL    HW211644   4.083   1.658   0.059  0.7785 -1.7948  1.6695
 1549SOL     OW11645   0.995   6.311   5.930 -0.2244 -0.0258 -0.4674
 1549SOL    HW111646   0.989   6.290   5.833 -0.3029  0.0161 -0.4723
 1549SOL    HW211647   1.038   6.400   5.942 -2.0540  0.9038 -0.5713
 1550SOL     OW11648   5.500   1.137   7.094  0.4623  0.1316  0.6294
 1550SOL    HW111649   5.490   1.125   7.193  0.3552 -1.0240  0.4874
 1550SOL    HW211650   5.576   1.199   7.075  2.2152 -1.7392  1.3813
 1551SOL     OW11651   2.616   2.329   6.894  0.7410 -0.8181 -0.2890
 1551SOL    HW111652   2.632   2.394   6.968 -0.7897  0.1209 -0.7753
 1551SOL    HW211653   2.696   2.327   6.834  0.7820  0.6365 -0.2874
 1552SOL     OW11654   5.975   6.231   2.252 -0.0023  0.0625  0.4521
 1552SOL    HW111655   6.072   6.217   2.234 -0.2730 -0.3574 -0.7019
 1552SOL    HW211656   5.957   6.215   2.349  1.3332  1.6243  0.9736
 1553SOL     OW11657   3.827   6.101   7.356  0.2716  0.0972 -0.2170
 1553SOL    HW111658   3.826   6.185   7.303 -0.0402 -0.9543 -1.9082
 1553SOL    HW211659   3.807   6.122   7.452 -2.0735  1.6944 -1.0166
 1554SOL     OW11660   6.463   4.513   5.180 -0.0675 -0.1345  0.1162
 1554SOL    HW111661   6.372   4.499   5.140  0.3162 -0.0510 -0.7915
 1554SOL    HW211662   6.510   4.426   5.188  0.1708 -0.0541 -0.3807
 1555SOL     OW11663   0.177   2.217   3.538 -0.6145  0.0101 -0.1476
 1555SOL    HW111664   0.156   2.244   3.445 -1.2937  0.5589  0.1699
 1555SOL    HW211665   0.250   2.148   3.536 -1.4321 -0.8569 -1.1485
 1556SOL     OW11666   4.073   5.351   0.490  0.2438 -0.3518  0.4263
 1556SOL    HW111667   4.127   5.356   0.406  0.1667 -1.0205  0.3358
 1556SOL    HW211668   4.071   5.257   0.523 -0.7743 -0.3245  0.4840
 1557SOL     OW11669   5.571   2.498   0.820  0.1689  0.0680 -0.0592
 1557SOL    HW111670   5.546   2.494   0.917  0.4095  0.3986  0.0203
 1557SOL    HW211671   5.574   2.594   0.791  2.0237  0.0796  0.1230
 1558SOL     OW11672   5.431   1.165   0.479  0.0618 -0.0085  0.2907
 1558SOL    HW111673   5.354   1.230   0.469 -1.1059 -1.4257 -0.1034
 1558SOL    HW211674   5.515   1.208   0.445 -0.9854  0.7599 -1.4495
 1559SOL     OW11675   1.784   2.934   6.502 -0.1481  0.0015  0.2788
 1559SOL    HW111676   1.854   2.869   6.472  0.3965  0.5319  0.3885
 1559SOL    HW211677   1.806   3.025   6.468 -1.7754 -0.1436 -1.2602
 1560SOL     OW11678   6.256   6.442   5.592 -0.2721 -0.1979 -0.3477
 1560SOL    HW111679   6.241   6.400   5.502  0.1261  0.1572 -0.5778
 1560SOL    HW211680   6.348   6.481   5.596 -0.5202  0.3558 -0.0126
 1561SOL     OW11681   1.228   1.913   2.210 -0.5656  0.1572 -0.2080
 1561SOL    HW111682   1.141   1.951   2.241  0.0097  1.1456  0.2110
 1561SOL    HW211683   1.256   1.956   2.124 -0.1111  0.4035  0.0598
 1562SOL     OW11684   4.176   3.549   1.170  0.4569  0.1776  0.2415
 1562SOL    HW111685   4.172   3.451   1.189 -0.6386 -0.1282 -1.4988
 1562SOL    HW211686   4.094   3.593   1.206  0.4764  0.3147  0.1172
 1563SOL     OW11687   0.311   3.844   7.331 -0.6043  0.3127  0.0639
 1563SOL    HW111688   0.305   3.745   7.314 -1.9408  0.3285  0.3431
 1563SOL    HW211689   0.330   3.892   7.246 -1.6816 -0.0545 -0.3892
 1564SOL     OW11690   4.925   5.996   2.680  0.1419 -0.2393  0.0705
 1564SOL    HW111691   4.931   6.068   2.750 -0.0133  1.0620 -1.2245
 1564SOL    HW211692   4.927   5.907   2.724 -1.1136  0.5678  1.8492
 1565SOL     OW11693   5.040   2.894   2.077  0.5718  0.3810  0.2940
 1565SOL    HW111694   4.999   2.985   2.076 -0.7938 -0.1528  3.0880
 1565SOL    HW211695   5.132   2.899   2.115 -0.0698  0.4256  1.9093
 1566SOL     OW11696   4.107   2.510   3.047  0.2023  0.9328 -0.0137
 1566SOL    HW111697   4.182   2.448   3.065 -1.3727 -1.0133  0.0179
 1566SOL    HW211698   4.101   2.578   3.119  2.8698  2.0757 -0.8191
 1567SOL     OW11699   6.226   0.244   5.302 -0.3158  0.3297 -0.0027
 1567SOL    HW111700   6.137   0.277   5.332 -0.4855 -0.0558 -0.0781
 1567SOL    HW211701   6.266   0.189   5.375  0.6937  2.0557  0.7770
 1568SOL     OW11702   6.196   2.347   5.052  0.5728  0.1873  0.3169
 1568SOL    HW111703   6.100   2.372   5.040  1.0571  1.2266 -1.6727
 1568SOL    HW211704   6.203   2.249   5.071 -0.8948  0.1688  0.8006
 1569SOL     OW11705   2.298   4.332   3.715  0.2934 -0.1266  0.0885
 1569SOL    HW111706   2.319   4.424   3.749  0.5333 -0.0874 -0.1623
 1569SOL    HW211707   2.308   4.267   3.790  0.8006 -0.0365  0.1039
 1570SOL     OW11708   2.429   1.618   5.051  0.1330  0.0477  0.1503
 1570SOL    HW111709   2.444   1.672   5.133 -0.6480  0.3541  0.1005
 1570SOL    HW211710   2.453   1.523   5.069  3.0034  0.6741 -0.2357
 1571SOL     OW11711   2.824   2.964   0.384  0.4325  0.1326 -0.8666
 1571SOL    HW111712   2.875   2.936   0.302 -0.3989 -0.3612 -1.2229
 1571SOL    HW211713   2.845   2.900   0.459  0.3737 -0.0437 -0.9989
 1572SOL     OW11714   3.640   6.308   6.668  0.0040 -0.1803  0.5988
 1572SOL    HW111715   3.562   6.364   6.694  0.2128 -0.2315  1.3302
 1572SOL    HW211716   3.653   6.235   6.735  2.9999  2.0903  2.5883
 1573SOL     OW11717   2.403   1.900   4.515  0.3326  0.7424 -0.3146
 1573SOL    HW111718   2.331   1.925   4.579  0.8884  0.8549  0.2699
 1573SOL    HW211719   2.398   1.801   4.496  1.2537  0.3909  1.2546
 1574SOL     OW11720   4.875   3.284   2.817 -0.2302 -0.4420  0.0572
 1574SOL    HW111721   4.836   3.370   2.849  0.0595 -0.4139  0.3367
 1574SOL    HW211722   4.827   3.254   2.735  1.6406  1.5845 -1.8653
 1575SOL     OW11723   5.632   4.939   7.187 -0.2513  0.0892 -0.2118
 1575SOL    HW111724   5.555   4.889   7.147 -0.5012  0.0863  0.2763
 1575SOL    HW211725   5.679   4.991   7.115  0.0029 -0.8300 -0.7181
 1576SOL     OW11726   1.650   5.260   0.520  0.4008  0.0828 -0.0320
 1576SOL    HW111727   1.720   5.255   0.449  1.0721  1.6100  0.4967
 1576SOL    HW211728   1.589   5.338   0.502 -0.5997 -0.6785  0.0158
 1577SOL     OW11729   6.759   2.725   1.512  0.3589  0.3820  0.0513
 1577SOL    HW111730   6.835   2.689   1.458  0.3647 -1.4542  1.2455
 1577SOL    HW211731   6.682   2.662   1.507  0.8470 -0.5795  3.2958
 1578SOL     OW11732   0.023   5.911   3.424 -0.2619  0.2461 -0.2665
 1578SOL    HW111733  -0.055   5.850   3.438 -0.9372  0.4061 -3.0516
 1578SOL    HW211734   0.000   5.979   3.355  1.7367  1.4441  0.2186
 1579SOL     OW11735   1.339   4.648   1.292  0.6047  0.3164  0.4704
 1579SOL    HW111736   1.303   4.692   1.374  0.8962  0.6495  0.4218
 1579SOL    HW211737   1.417   4.589   1.316  1.8802  1.8523  0.1984
 1580SOL     OW11738   4.285   1.500   0.541 -0.0306 -0.5364 -0.0710
 1580SOL    HW111739   4.299   1.571   0.472 -0.7589  0.4867  0.8144
 1580SOL    HW211740   4.187   1.477   0.546 -0.2119  0.5030  1.6791
 1581SOL     OW11741   5.725   0.515   6.388 -0.2784 -0.4691  0.5825
 1581SOL    HW111742   5.718   0.588   6.455 -1.8460 -0.3145  0.2528
 1581SOL    HW211743   5.806   0.460   6.408  2.2411  2.6804 -0.4955
 1582SOL     OW11744   6.244   6.604   1.966  0.7503  0.5794 -0.2194
 1582SOL    HW111745   6.226   6.658   1.884  0.5038 -0.6563 -0.9869
 1582SOL    HW211746   6.227   6.660   2.047 -0.5295  1.3264 -0.9912
 1583SOL     OW11747   5.618   2.140   1.426  0.7780  0.6304 -0.4152
 1583SOL    HW111748   5.648   2.123   1.520  0.6866  1.2030 -0.2790
 1583SOL    HW211749   5.671   2.082   1.363  0.9464  0.3596 -0.0266
 1584SOL     OW11750   5.325   0.210   3.737 -0.4505 -0.0204 -0.3401
 1584SOL    HW111751   5.333   0.115   3.705  0.2688  0.1736 -0.7638
 1584SOL    HW211752   5.393   0.266   3.690  0.0825  0.4356  0.9467
 1585SOL     OW11753   3.688   3.511   5.151  0.3815  0.3454  0.3510
 1585SOL    HW111754   3.744   3.430   5.137  0.4395  0.4218  0.1430
 1585SOL    HW211755   3.648   3.509   5.243  0.1415 -0.0671  0.2375
 1586SOL     OW11756   3.780   0.752   0.842 -0.4484  0.0477  0.0476
 1586SOL    HW111757   3.873   0.742   0.878 -0.2202  1.2128 -0.2037
 1586SOL    HW211758   3.778   0.722   0.747  0.1792  2.0351 -0.6262
 1587SOL     OW11759   4.926   2.976   1.013  0.3107  0.6632 -0.1252
 1587SOL    HW111760   4.848   3.039   1.019  0.3486  0.7785 -0.8219
 1587SOL    HW211761   4.963   2.978   0.920 -0.3720 -1.1939 -0.4733
 1588SOL     OW11762   1.938   0.408   0.619  0.6852 -0.2565  0.6616
 1588SOL    HW111763   1.964   0.314   0.597  0.5736 -0.0363 -0.4092
 1588SOL    HW211764   1.883   0.408   0.703 -0.3113 -1.2795  0.0237
 1589SOL     OW11765   5.778   3.651   3.311 -0.2495  0.6727  0.0682
 1589SOL    HW111766   5.825   3.563   3.304 -0.1014  0.6822  0.9292
 1589SOL    HW211767   5.697   3.642   3.369  0.7071  1.4751  1.5745
 1590SOL     OW11768   2.583   2.487   1.066 -0.3380 -0.5077  0.0171
 1590SOL    HW111769   2.569   2.585   1.054 -2.6204 -0.9018 -0.7473
 1590SOL    HW211770   2.528   2.454   1.143 -0.3557 -1.3475 -0.3518
 1591SOL     OW11771   0.742   5.443   0.444  0.0661  0.2812 -0.0542
 1591SOL    HW111772   0.784   5.465   0.532  1.7188  1.8834 -1.2191
 1591SOL    HW211773   0.768   5.350   0.417  2.2817  0.9769 -0.4019
 1592SOL     OW11774   1.684   5.509   6.665  0.2439  0.6792  0.0045
 1592SOL    HW111775   1.763   5.537   6.611 -0.2193  0.8911 -0.5628
 1592SOL    HW211776   1.701   5.418   6.704  0.2265  0.1508 -1.2143
 1593SOL     OW11777   2.965   7.057   5.785  0.5524 -0.0840  0.1488
 1593SOL    HW111778   2.973   7.046   5.884  1.5931 -1.0720 -0.0340
 1593SOL    HW211779   3.018   7.137   5.756 -0.1459  0.4933  0.4377
 1594SOL     OW11780   3.006   4.047   4.334 -0.9288  0.4592 -0.3498
 1594SOL    HW111781   2.971   4.119   4.394  0.0000 -0.4088  1.2626
 1594SOL    HW211782   3.000   3.959   4.381  0.4087 -0.1463 -1.2868
 1595SOL     OW11783   2.823   3.308   1.675  0.5243  0.0583  0.2220
 1595SOL    HW111784   2.875   3.259   1.745  0.1416  0.8480  1.0729
 1595SOL    HW211785   2.860   3.286   1.585  1.4747 -0.4230  0.7168
 1596SOL     OW11786   0.217   2.913   2.794 -0.0648  0.2878 -0.4497
 1596SOL    HW111787   0.259   2.966   2.720 -2.6684  2.3502 -0.5327
 1596SOL    HW211788   0.275   2.917   2.875  0.7665  1.5748 -1.0880
 1597SOL     OW11789   3.860   0.283   2.065  0.1546 -0.5338 -0.0252
 1597SOL    HW111790   3.822   0.356   2.008 -2.4305  0.1872  2.5676
 1597SOL    HW211791   3.836   0.298   2.160  0.0037 -4.5079  0.6561
 1598SOL     OW11792   4.702   2.509   5.560  0.0470 -0.9193  0.1467
 1598SOL    HW111793   4.784   2.489   5.612 -0.9559 -3.0383  0.9563
 1598SOL    HW211794   4.622   2.505   5.619 -0.7145  0.8066 -0.6962
 1599SOL     OW11795   5.598   3.965   5.619 -0.2317 -0.5235 -0.6061
 1599SOL    HW111796   5.646   3.877   5.621 -0.2935 -0.6026 -1.8666
 1599SOL    HW211797   5.547   3.973   5.533  0.8328  1.3011 -1.0973
 1600SOL     OW11798   6.951   4.461   5.832 -0.4750 -0.1780 -0.0254
 1600SOL    HW111799   6.940   4.469   5.931 -1.3625 -0.7514 -0.0697
 1600SOL    HW211800   7.040   4.496   5.805  0.5442 -1.7465  1.2077
 1601SOL     OW11801   5.685   5.292   0.762 -0.1150 -0.3981  0.0826
 1601SOL    HW111802   5.749   5.269   0.836 -1.2803 -1.5629  0.7426
 1601SOL    HW211803   5.729   5.275   0.674  0.5391 -1.0748  0.5313
 1602SOL     OW11804   6.393   3.524   2.957 -0.6968  0.1909 -0.0103
 1602SOL    HW111805   6.411   3.475   2.872 -0.7839  2.1487 -1.2051
 1602SOL    HW211806   6.442   3.612   2.955  0.8775 -0.5520  2.7968
 1603SOL     OW11807   6.705   6.654   6.774 -0.0891 -0.2061 -0.1031
 1603SOL    HW111808   6.805   6.649   6.770 -0.0775  0.6232 -0.9040
 1603SOL    HW211809   6.668   6.561   6.777  0.6342 -0.5763 -1.7709
 1604SOL     OW11810   1.207   6.443   7.318 -0.1230 -0.1898  0.0395
 1604SOL    HW111811   1.165   6.352   7.319  1.8584 -1.1222  3.0632
 1604SOL    HW211812   1.294   6.439   7.269 -0.6676  0.4136 -0.9990
 1605SOL     OW11813   2.580   6.937   3.532 -0.0638 -0.5921 -0.1628
 1605SOL    HW111814   2.515   6.924   3.607 -0.0262  1.1175  0.1897
 1605SOL    HW211815   2.637   6.855   3.523  0.3276 -0.6165  2.0858
 1606SOL     OW11816   6.122   1.110   6.812  0.5997  0.3831 -0.3586
 1606SOL    HW111817   6.058   1.038   6.784  0.3897  0.8063 -0.9674
 1606SOL    HW211818   6.140   1.102   6.910  1.5477 -1.2650 -0.6610
 1607SOL     OW11819   6.221   0.089   5.982 -0.0121  0.2699  0.3554
 1607SOL    HW111820   6.296   0.119   5.924 -0.6296  0.1525 -0.5133
 1607SOL    HW211821   6.155   0.037   5.927 -0.0342 -0.8138  1.3960
 1608SOL     OW11822   0.151   1.757   3.466 -0.3822  0.4790  0.1904
 1608SOL    HW111823   0.107   1.709   3.542  0.3271  0.6332  0.6992
 1608SOL    HW211824   0.246   1.728   3.460 -0.8116 -0.6331 -1.5598
 1609SOL     OW11825   1.257   2.424   0.353  0.2815 -0.4122 -0.0517
 1609SOL    HW111826   1.188   2.484   0.311  0.0345  0.5913  1.7321
 1609SOL    HW211827   1.271   2.344   0.295  0.2834  1.1440 -2.2602
 1610SOL     OW11828   1.898   5.252   5.483  0.3566 -0.2718  0.2658
 1610SOL    HW111829   1.849   5.168   5.504  0.4722 -0.1777  0.9208
 1610SOL    HW211830   1.866   5.325   5.543  0.3931  0.1050 -0.1691
 1611SOL     OW11831   4.901   3.697   0.995  0.1246  0.1666 -0.4688
 1611SOL    HW111832   4.981   3.637   0.985  0.8670  1.2470 -1.1103
 1611SOL    HW211833   4.894   3.756   0.915 -1.4129 -0.0289 -0.4805
 1612SOL     OW11834   4.981   1.409   2.433  0.5108 -0.3566 -0.1640
 1612SOL    HW111835   4.901   1.393   2.491 -0.5717 -0.6685 -1.7066
 1612SOL    HW211836   5.036   1.483   2.471 -0.5963 -0.0308  0.8267
 1613SOL     OW11837   1.035   2.142   6.855 -0.1699 -0.0197 -0.0910
 1613SOL    HW111838   0.997   2.103   6.939  0.0053  1.3153  0.6312
 1613SOL    HW211839   1.122   2.186   6.875 -0.5422  1.0681 -0.7906
 1614SOL     OW11840   3.156   0.590   0.097 -0.0936 -0.3587  0.3213
 1614SOL    HW111841   3.077   0.631   0.052  0.2126 -1.1682 -0.9826
 1614SOL    HW211842   3.128   0.505   0.142  0.4863 -1.8270 -2.0661
 1615SOL     OW11843   1.115   2.930   3.676  0.0291  0.3682 -0.2293
 1615SOL    HW111844   1.110   2.870   3.596  2.3626 -0.2456  0.0576
 1615SOL    HW211845   1.054   2.896   3.747 -1.6287  0.5928 -1.5027
 1616SOL     OW11846   6.633   7.000   3.742 -0.1908 -0.1301 -0.3763
 1616SOL    HW111847   6.542   6.966   3.718 -0.7672  1.2341 -0.1570
 1616SOL    HW211848   6.666   7.061   3.670  0.8322 -1.1196 -0.7619
 1617SOL     OW11849   3.344   3.923   0.341  0.4138  0.0113  0.2232
 1617SOL    HW111850   3.444   3.919   0.339  0.4332  0.8950 -0.9846
 1617SOL    HW211851   3.315   3.991   0.409  0.7007  1.7366 -1.3503
 1618SOL     OW11852   4.928   5.269   3.482 -0.0688 -0.0219 -0.0791
 1618SOL    HW111853   4.917   5.181   3.435  1.1561 -0.2546  0.0485
 1618SOL    HW211854   4.928   5.343   3.415  1.4105 -0.3320 -0.4418
 1619SOL     OW11855   4.347   1.325   0.746 -0.3600  0.1266 -0.0474
 1619SOL    HW111856   4.289   1.364   0.674 -2.0005  0.1898  1.2607
 1619SOL    HW211857   4.356   1.391   0.821  4.2564  1.4871 -1.6437
 1620SOL     OW11858   0.968   3.745   1.056 -0.7253  0.0938  0.4689
 1620SOL    HW111859   0.947   3.783   0.966 -1.9668  0.8116  1.0461
 1620SOL    HW211860   1.013   3.814   1.111  0.1824 -0.3982  0.3467
 1621SOL     OW11861   4.285   6.018   5.161  0.6846 -0.2521  0.4706
 1621SOL    HW111862   4.302   6.009   5.259 -0.1962 -0.9532  0.5594
 1621SOL    HW211863   4.372   6.037   5.114  1.2388 -0.7719  1.2711
 1622SOL     OW11864   7.073   1.281   2.571  0.1558  0.0843 -0.4438
 1622SOL    HW111865   6.976   1.307   2.570  0.2004  0.2300 -1.6935
 1622SOL    HW211866   7.082   1.188   2.607 -0.5875 -0.4410 -1.5770
 1623SOL     OW11867   5.931   5.935   2.296  0.1451  0.0402 -0.1164
 1623SOL    HW111868   5.927   5.841   2.263 -1.8609  0.0753 -0.0532
 1623SOL    HW211869   6.021   5.953   2.337  0.7494 -1.6471 -0.6819
 1624SOL     OW11870   0.784   1.015   2.785  0.1570  0.1930  0.2357
 1624SOL    HW111871   0.880   1.043   2.786  0.4559 -0.8526  0.9609
 1624SOL    HW211872   0.770   0.948   2.712 -0.1876  0.8912 -0.3498
 1625SOL     OW11873   6.703   6.113   2.538 -0.4214 -0.4263  0.7986
 1625SOL    HW111874   6.765   6.149   2.608 -1.1992 -0.6785  1.6173
 1625SOL    HW211875   6.610   6.112   2.573 -1.0386  0.7742 -0.7390
 1626SOL     OW11876   1.364   0.288   5.551  0.7101  0.4474  0.2463
 1626SOL    HW111877   1.410   0.256   5.634  0.3545  0.1936  0.3524
 1626SOL    HW211878   1.285   0.228   5.533  1.3088 -0.0482 -0.7727
 1627SOL     OW11879   0.727   4.484   0.482  0.4815  0.1164  0.0533
 1627SOL    HW111880   0.785   4.452   0.556  0.6038  1.6964  0.6633
 1627SOL    HW211881   0.776   4.552   0.428  0.1341 -0.4847 -1.0372
 1628SOL     OW11882   7.176   2.216   7.108  1.1313 -0.0593 -0.2037
 1628SOL    HW111883   7.113   2.212   7.031  1.2931 -1.7972 -0.2716
 1628SOL    HW211884   7.245   2.144   7.098  0.7433 -0.7422  1.9110
 1629SOL     OW11885   1.363   6.286   5.736 -0.6802  0.9777 -0.1788
 1629SOL    HW111886   1.387   6.230   5.657 -1.3274  1.4754 -0.7335
 1629SOL    HW211887   1.339   6.227   5.813  0.9250  0.4815 -0.0373
 1630SOL     OW11888   5.033   6.734   2.677 -0.3959  0.1008  0.0037
 1630SOL    HW111889   5.039   6.697   2.770 -1.3529  0.4240  0.1997
 1630SOL    HW211890   5.079   6.672   2.613  1.0787  0.3331  0.8106
 1631SOL     OW11891   0.546   4.643   1.057 -0.2743  0.5228  0.3208
 1631SOL    HW111892   0.477   4.584   1.099 -1.7147  0.7264 -1.7097
 1631SOL    HW211893   0.529   4.738   1.083 -0.1658  0.4720  0.5840
 1632SOL     OW11894   4.436   0.509   1.691  0.3856  0.0987  0.7478
 1632SOL    HW111895   4.475   0.599   1.709  0.5579 -0.0303  1.0207
 1632SOL    HW211896   4.470   0.444   1.759  1.7396 -0.6001 -0.5748
 1633SOL     OW11897   3.782   3.590   5.586 -0.0200 -0.1018 -0.3540
 1633SOL    HW111898   3.756   3.512   5.644  0.1635  0.3981  0.4110
 1633SOL    HW211899   3.726   3.590   5.503  0.0802 -1.1319 -0.4279
 1634SOL     OW11900   4.676   2.280   1.861 -0.3060 -0.7531 -0.7275
 1634SOL    HW111901   4.750   2.341   1.890 -0.5192 -1.0604  0.4904
 1634SOL    HW211902   4.589   2.329   1.867 -0.3699 -0.8736 -0.6677
 1635SOL     OW11903   0.848   1.427   3.237 -0.0224 -0.1458 -0.7971
 1635SOL    HW111904   0.862   1.396   3.331  0.5802 -0.5627 -1.0115
 1635SOL    HW211905   0.820   1.349   3.180  1.2166 -0.2638 -1.2849
 1636SOL     OW11906   4.909   1.965   2.620 -0.3395 -0.3755  0.1673
 1636SOL    HW111907   4.922   1.962   2.719 -0.7400 -1.1938  0.1999
 1636SOL    HW211908   4.817   1.999   2.600  0.2591  1.1970  0.0383
 1637SOL     OW11909   6.644   2.567   6.669 -0.2240  0.1656 -0.1862
 1637SOL    HW111910   6.731   2.614   6.683 -0.3848  1.2069 -2.6227
 1637SOL    HW211911   6.629   2.550   6.572 -2.6256 -0.2719  0.2133
 1638SOL     OW11912   5.451   3.228   6.708  0.0405 -0.1758 -0.0574
 1638SOL    HW111913   5.430   3.176   6.791  0.4636 -0.9169 -0.4139
 1638SOL    HW211914   5.376   3.292   6.689  1.6003  2.6358  2.9665
 1639SOL     OW11915   4.409   4.167   5.150 -0.2602 -0.1699  0.4507
 1639SOL    HW111916   4.481   4.234   5.133 -0.6711  0.5673  1.5426
 1639SOL    HW211917   4.324   4.214   5.173 -0.8923 -1.0492 -0.0246
 1640SOL     OW11918   5.519   5.660   4.599  0.4709  0.0521  0.2167
 1640SOL    HW111919   5.470   5.584   4.641  0.1939  0.5801  0.8807
 1640SOL    HW211920   5.491   5.745   4.645  0.6626  0.5621 -0.6132
 1641SOL     OW11921   2.626   3.624   0.527 -0.3533  0.0846  0.0126
 1641SOL    HW111922   2.700   3.570   0.487 -0.6284  1.1820 -1.9910
 1641SOL    HW211923   2.541   3.604   0.480 -1.0228  0.1087  1.1888
 1642SOL     OW11924   2.611   0.078   0.524 -0.4557  0.0059  0.1970
 1642SOL    HW111925   2.514   0.064   0.540  0.2784 -2.3649  3.0899
 1642SOL    HW211926   2.651   0.124   0.603  0.8663  0.4964 -0.7423
 1643SOL     OW11927   0.028   0.920   1.274 -0.5426 -0.4361 -0.4546
 1643SOL    HW111928   0.017   1.017   1.253 -1.2490 -0.1855  1.0090
 1643SOL    HW211929  -0.048   0.869   1.235 -0.5568 -0.3020 -0.6025
 1644SOL     OW11930   0.341   4.590   4.645  0.3213 -0.2634  0.5260
 1644SOL    HW111931   0.390   4.504   4.634  0.9355  0.1369  0.0614
 1644SOL    HW211932   0.380   4.659   4.584 -1.3249 -0.1410 -0.4490
 1645SOL     OW11933   5.758   5.096   6.572 -0.4370 -0.2680  0.1533
 1645SOL    HW111934   5.809   5.138   6.647  2.2101  0.5535 -2.0071
 1645SOL    HW211935   5.793   5.004   6.555 -1.1604 -0.5313  0.0558
 1646SOL     OW11936   6.137   5.816   0.149 -0.2885 -0.3709  0.6493
 1646SOL    HW111937   6.204   5.769   0.206  0.7399 -0.1188 -0.3470
 1646SOL    HW211938   6.072   5.749   0.112  1.4985 -1.1359 -1.2098
 1647SOL     OW11939   1.388   2.983   7.030 -0.2609  0.0271 -0.0826
 1647SOL    HW111940   1.389   3.043   7.110  0.0008 -1.7293  1.2462
 1647SOL    HW211941   1.359   2.892   7.057 -0.2846 -0.5629 -2.0297
 1648SOL     OW11942   4.684   2.669   4.011 -0.0801  0.5309 -0.0388
 1648SOL    HW111943   4.614   2.734   3.981  0.2985  2.2992  2.6952
 1648SOL    HW211944   4.666   2.580   3.971 -2.8104  1.4178 -0.9008
 1649SOL     OW11945   4.916   1.949   5.456  0.3668 -0.2657  0.7530
 1649SOL    HW111946   4.929   1.954   5.555  0.3644  3.6378  0.6355
 1649SOL    HW211947   4.849   1.877   5.435  0.4196 -1.2099  3.5589
 1650SOL     OW11948   5.224   2.837   4.862 -0.2135 -0.3435  0.1591
 1650SOL    HW111949   5.260   2.824   4.954  1.1419 -2.1648 -0.5927
 1650SOL    HW211950   5.135   2.883   4.867  0.3061  0.4650  2.2966
 1651SOL     OW11951   6.718   5.775   2.795  0.3225 -0.0099  0.5664
 1651SOL    HW111952   6.622   5.792   2.771  0.1915 -0.7425  0.5492
 1651SOL    HW211953   6.721   5.707   2.869  0.8352 -0.1842  0.3827
 1652SOL     OW11954   4.268   2.448   0.084  0.4256 -0.5418  0.3149
 1652SOL    HW111955   4.352   2.501   0.070 -1.2321  1.4395 -2.8192
 1652SOL    HW211956   4.282   2.355   0.052  1.6535 -0.4626  0.5759
 1653SOL     OW11957   5.954   2.708   2.000 -0.1490 -0.2186  0.8630
 1653SOL    HW111958   5.930   2.648   2.077  0.2366 -0.9671  0.4131
 1653SOL    HW211959   5.872   2.730   1.948 -0.2986 -0.3589  1.0387
 1654SOL     OW11960   1.160   4.270   5.670 -0.3490 -0.0817 -0.0428
 1654SOL    HW111961   1.155   4.298   5.574 -1.3311  1.7000  0.5104
 1654SOL    HW211962   1.170   4.351   5.728  0.2380 -1.1416  1.3694
 1655SOL     OW11963   6.264   4.980   2.399  0.7523  0.8208 -0.2117
 1655SOL    HW111964   6.319   4.897   2.398  1.5519  1.3556 -1.1212
 1655SOL    HW211965   6.291   5.037   2.477  0.1249  0.1933  0.4795
 1656SOL     OW11966   6.375   4.440   7.285  0.0873 -0.3611 -0.0208
 1656SOL    HW111967   6.408   4.352   7.320 -0.2043 -1.4011 -2.2938
 1656SOL    HW211968   6.440   4.475   7.218 -0.6845  0.2891 -0.4358
 1657SOL     OW11969   0.601   4.772   1.843  0.4599  0.4338  0.5241
 1657SOL    HW111970   0.632   4.824   1.764 -0.7290 -0.1076 -0.3187
 1657SOL    HW211971   0.591   4.676   1.817 -1.0464  0.4480  1.0207
 1658SOL     OW11972   1.787   4.371   7.136 -0.1470  0.0570  0.0296
 1658SOL    HW111973   1.861   4.437   7.144  1.2818 -1.5233  0.0352
 1658SOL    HW211974   1.736   4.389   7.052 -0.7426  2.0898  0.7732
 1659SOL     OW11975   2.929   6.380   0.075  0.0955  0.5832  0.0703
 1659SOL    HW111976   2.839   6.422   0.068 -0.2724 -0.0497  1.0690
 1659SOL    HW211977   2.999   6.452   0.081 -0.5143  1.0542  1.5638
 1660SOL     OW11978   7.210   3.934   2.566  0.2899 -0.3976  0.1041
 1660SOL    HW111979   7.227   3.895   2.476  1.6037 -1.3031  0.7238
 1660SOL    HW211980   7.170   4.025   2.556  0.5893 -0.4181 -1.3854
 1661SOL     OW11981   5.595   4.892   3.780 -0.1714  0.0885  0.0471
 1661SOL    HW111982   5.682   4.878   3.828 -0.1477 -1.5448 -0.4488
 1661SOL    HW211983   5.554   4.978   3.810  0.4451 -0.3029  2.0989
 1662SOL     OW11984   3.143   5.365   0.404  0.3433 -0.0616 -0.2997
 1662SOL    HW111985   3.156   5.275   0.362  1.0011 -0.0483 -0.1358
 1662SOL    HW211986   3.233   5.407   0.421  0.0571  0.3508  0.2163
 1663SOL     OW11987   3.535   5.289   5.627 -0.0663 -0.3722 -0.0116
 1663SOL    HW111988   3.514   5.376   5.670  1.3287  0.4212 -0.9337
 1663SOL    HW211989   3.590   5.304   5.545  0.3048 -2.1283 -0.1024
 1664SOL     OW11990   6.461   0.823   0.568  0.3659  0.2725 -0.0055
 1664SOL    HW111991   6.452   0.834   0.667  0.9240  2.9844 -0.1966
 1664SOL    HW211992   6.556   0.841   0.541  0.1769 -0.2389 -1.0351
 1665SOL     OW11993   3.433   4.368   3.748 -0.6713 -0.6135 -0.2680
 1665SOL    HW111994   3.468   4.384   3.840  0.9146  0.4335 -1.0422
 1665SOL    HW211995   3.401   4.273   3.741  0.0871 -0.9872  1.0646
 1666SOL     OW11996   7.087   4.023   2.221  0.6403  0.1463  0.1903
 1666SOL    HW111997   7.152   3.949   2.203  1.1636  0.4436  0.7958
 1666SOL    HW211998   7.089   4.044   2.319  0.3103  0.7890  0.0565
 1667SOL     OW11999   5.477   5.971   2.084  0.1189  0.2022  0.4856
 1667SOL    HW112000   5.556   6.032   2.078  1.0610 -1.0022  0.4144
 1667SOL    HW212001   5.434   5.981   2.173  1.1897 -0.1311  1.0560
 1668SOL     OW12002   0.616   2.338   7.142 -0.7144  0.1730  0.2417
 1668SOL    HW112003   0.654   2.320   7.233 -2.2893 -0.0980  0.8508
 1668SOL    HW212004   0.529   2.291   7.132 -0.0246 -0.7327 -1.8306
 1669SOL     OW12005   5.005   6.106   5.678 -0.7203  0.3348  0.1966
 1669SOL    HW112006   5.075   6.130   5.745  1.3145 -1.5074 -1.1991
 1669SOL    HW212007   5.024   6.152   5.591 -0.2125 -1.5101 -0.7018
 1670SOL     OW12008   4.731   6.259   4.181 -0.0862 -0.4428 -0.7872
 1670SOL    HW112009   4.758   6.163   4.166 -0.1359 -0.5047 -0.4791
 1670SOL    HW212010   4.799   6.319   4.138 -1.1382 -0.6440 -2.7955
 1671SOL     OW12011   4.025   3.034   2.161  1.0730  0.0257 -0.3797
 1671SOL    HW112012   4.034   2.972   2.083  0.2311  0.7305 -1.0348
 1671SOL    HW212013   3.929   3.038   2.189  1.4488 -0.6836  1.0769
 1672SOL     OW12014   0.202   2.179   1.414  0.3855 -0.2967  0.0381
 1672SOL    HW112015   0.107   2.189   1.385  0.5760 -0.0368 -0.4897
 1672SOL    HW212016   0.241   2.097   1.371  0.4681 -0.2824  0.0858
 1673SOL     OW12017   3.815   2.930   4.519 -0.4849  0.5187 -0.7080
 1673SOL    HW112018   3.899   2.979   4.542  1.5565 -2.9195 -0.5047
 1673SOL    HW212019   3.752   2.934   4.596  0.3338  1.3965 -0.0742
 1674SOL     OW12020   4.838   7.357   5.343 -0.1332  0.1409  0.7247
 1674SOL    HW112021   4.827   7.343   5.245  1.2527  2.1186  0.2545
 1674SOL    HW212022   4.910   7.297   5.378 -0.6092 -0.5415  0.5438
 1675SOL     OW12023   3.136   0.421   1.138 -0.4552 -0.1105  0.1234
 1675SOL    HW112024   3.229   0.448   1.163 -0.4838  0.2815 -0.2103
 1675SOL    HW212025   3.139   0.365   1.055 -0.3409 -1.5888  1.0876
 1676SOL     OW12026   4.859   4.581   6.218 -0.2142 -0.3538 -0.3590
 1676SOL    HW112027   4.835   4.599   6.123 -0.1613  1.2824 -0.0689
 1676SOL    HW212028   4.957   4.597   6.232  0.2651 -2.8851 -0.5560
 1677SOL     OW12029   6.362   6.223   1.101 -0.5467 -0.0524 -0.4779
 1677SOL    HW112030   6.431   6.279   1.147  0.5286 -0.9567 -0.9780
 1677SOL    HW212031   6.343   6.262   1.010  0.7153 -0.8843 -1.1069
 1678SOL     OW12032   2.348   6.657   6.229 -1.2970  0.2539 -0.3527
 1678SOL    HW112033   2.310   6.720   6.298 -0.2055  1.0417 -0.4691
 1678SOL    HW212034   2.333   6.695   6.138  0.4424  0.9666 -0.3686
 1679SOL     OW12035   4.760   4.693   5.927  0.1502  0.2184  0.5198
 1679SOL    HW112036   4.846   4.685   5.877  0.5398  1.7418  0.9158
 1679SOL    HW212037   4.712   4.605   5.925  0.4443  0.0913 -1.9793
 1680SOL     OW12038   0.136   3.025   0.087 -0.0442  0.1069 -0.7851
 1680SOL    HW112039   0.100   2.933   0.097 -0.9793  0.2910 -2.2655
 1680SOL    HW212040   0.064   3.092   0.106  0.2676  0.5216 -1.0351
 1681SOL     OW12041   2.616   4.179   4.311 -0.3940 -0.1052 -0.3302
 1681SOL    HW112042   2.544   4.227   4.260 -0.0153  0.1410 -0.6403
 1681SOL    HW212043   2.597   4.081   4.312 -1.5339  0.1079  0.8732
 1682SOL     OW12044   3.772   1.769   6.105  0.1675  0.5026  0.7642
 1682SOL    HW112045   3.844   1.814   6.053 -0.2308 -0.8567 -1.0333
 1682SOL    HW212046   3.813   1.717   6.179  1.0376 -0.0384 -0.0751
 1683SOL     OW12047   2.855   4.276   1.935 -0.3319  0.2710  0.0897
 1683SOL    HW112048   2.907   4.308   2.014 -0.6985 -1.5803  1.0842
 1683SOL    HW212049   2.894   4.317   1.852 -0.2477  2.5882  1.2424
 1684SOL     OW12050   1.177   2.066   2.614  0.8714 -0.0131 -0.3074
 1684SOL    HW112051   1.111   1.996   2.588 -1.7878  2.2198  0.2377
 1684SOL    HW212052   1.243   2.027   2.679 -0.1178 -2.1726 -0.5506
 1685SOL     OW12053   7.285   0.915   1.818  0.0064 -0.8747  0.7812
 1685SOL    HW112054   7.209   0.860   1.783  0.3698 -1.4436  0.8719
 1685SOL    HW212055   7.255   1.009   1.833  0.0278 -0.4458 -1.7376
 1686SOL     OW12056   2.845   0.764   6.444 -0.9431  0.2699 -0.1868
 1686SOL    HW112057   2.899   0.808   6.516  0.4502  0.1233 -1.1247
 1686SOL    HW212058   2.906   0.722   6.377 -2.2227  0.0947 -1.2741
 1687SOL     OW12059   3.338   4.258   5.680 -0.3431  0.0436  0.0598
 1687SOL    HW112060   3.432   4.224   5.691 -0.1245  0.4688 -0.4942
 1687SOL    HW212061   3.329   4.304   5.592 -0.8941  0.6103  0.4058
 1688SOL     OW12062   4.429   4.250   0.696  0.4004  0.4441  0.1539
 1688SOL    HW112063   4.331   4.267   0.704  0.7365  1.8747  1.5475
 1688SOL    HW212064   4.457   4.182   0.764  0.2724 -0.4536 -0.6823
 1689SOL     OW12065   5.611   5.743   3.931 -0.1483  0.2312 -0.0201
 1689SOL    HW112066   5.621   5.772   3.836 -1.7549 -0.5673 -0.4464
 1689SOL    HW212067   5.660   5.657   3.946  0.1912  0.4112 -0.0861
 1690SOL     OW12068   2.657   4.857   0.983 -0.0305  0.2490 -0.0177
 1690SOL    HW112069   2.602   4.935   0.953  0.3691 -0.0323 -1.5320
 1690SOL    HW212070   2.745   4.890   1.018  0.3967  0.4514 -1.2540
 1691SOL     OW12071   1.907   3.083   3.968  0.4196 -0.2498 -0.6856
 1691SOL    HW112072   1.958   2.998   3.982  0.0219 -0.4840 -0.6298
 1691SOL    HW212073   1.849   3.073   3.888  1.3137  0.4267 -1.4136
 1692SOL     OW12074   0.045   3.476   6.758  0.7543  0.2602 -0.0471
 1692SOL    HW112075   0.076   3.419   6.682  1.8286 -0.4297  0.8826
 1692SOL    HW212076   0.083   3.568   6.748  1.4801 -0.0247  0.0122
 1693SOL     OW12077   6.256   2.195   5.440  0.0901 -0.6409  0.4834
 1693SOL    HW112078   6.172   2.195   5.386 -0.4089  0.3760  1.2451
 1693SOL    HW212079   6.234   2.180   5.536  0.6670  0.6811  0.8354
 1694SOL     OW12080   4.994   3.026   0.756 -0.7079  0.4013 -0.2801
 1694SOL    HW112081   4.923   3.095   0.745 -1.8476 -0.9957 -1.9328
 1694SOL    HW212082   5.006   2.976   0.670  0.4976 -1.0525  0.7047
 1695SOL     OW12083   6.316   4.212   1.509  0.5981  0.2005  0.1993
 1695SOL    HW112084   6.416   4.206   1.510  0.5165 -1.3810  0.6534
 1695SOL    HW212085   6.280   4.181   1.596 -0.3297 -0.1574 -0.3051
 1696SOL     OW12086   7.003   6.328   6.445  0.3915  0.2694  0.4827
 1696SOL    HW112087   7.006   6.228   6.435  1.4132  0.3283  0.0745
 1696SOL    HW212088   6.916   6.355   6.485  0.7461 -0.9338  2.1520
 1697SOL     OW12089   5.873   3.376   3.361 -0.6886  0.5257 -0.1607
 1697SOL    HW112090   5.900   3.342   3.451 -0.8977 -1.0631 -0.6785
 1697SOL    HW212091   5.805   3.315   3.321  1.0983 -0.1000 -2.3796
 1698SOL     OW12092   6.647   7.274   2.931 -0.8003 -0.0128  0.0955
 1698SOL    HW112093   6.654   7.268   2.831  0.4877 -0.2614  0.1992
 1698SOL    HW212094   6.655   7.369   2.959  1.3053 -0.1730  0.1299
 1699SOL     OW12095   7.157   1.269   0.114 -0.4211 -0.0943  0.3793
 1699SOL    HW112096   7.174   1.367   0.100  0.3269 -0.1286  1.0854
 1699SOL    HW212097   7.240   1.217   0.094 -0.9773 -0.6434 -0.5556
 1700SOL     OW12098   7.209   7.184   5.824  0.0387  0.0130 -0.5069
 1700SOL    HW112099   7.158   7.142   5.900  0.0154  0.6696 -0.1575
 1700SOL    HW212100   7.307   7.167   5.838  0.1446  1.2855  0.3957
 1701SOL     OW12101   2.941   6.120   3.095 -0.3287 -0.5253  0.4608
 1701SOL    HW112102   3.037   6.096   3.080 -0.5315 -0.7475 -0.4659
 1701SOL    HW212103   2.924   6.213   3.063 -0.2728 -0.2313  1.2535
 1702SOL     OW12104   4.950   5.519   3.379  0.1579  0.2633  0.4360
 1702SOL    HW112105   4.942   5.553   3.473  0.0530  0.2932  0.4151
 1702SOL    HW212106   4.869   5.544   3.327  0.3961  0.6037  0.2235
 1703SOL     OW12107   2.709   7.148   6.057 -0.8105  0.4506  0.2570
 1703SOL    HW112108   2.661   7.215   6.001 -0.2200  1.1748  0.6178
 1703SOL    HW212109   2.767   7.194   6.123  2.4218 -0.3243 -1.8779
 1704SOL     OW12110   3.595   6.662   0.053  0.4072  0.1435 -0.3983
 1704SOL    HW112111   3.677   6.612   0.082  1.0260 -0.3152 -2.8375
 1704SOL    HW212112   3.516   6.600   0.055  0.5435 -0.0240 -0.1739
 1705SOL     OW12113   1.645   3.742   2.615  0.0765 -0.3726  0.1829
 1705SOL    HW112114   1.658   3.835   2.580  0.1074 -0.3535  0.2457
 1705SOL    HW212115   1.734   3.697   2.622  0.1114 -0.2297  0.6529
 1706SOL     OW12116   2.048   0.269   6.485  0.0743 -0.1027  0.1424
 1706SOL    HW112117   2.018   0.359   6.453  0.6790  0.0068 -0.1263
 1706SOL    HW212118   1.976   0.227   6.540 -0.2804  0.4676  0.1132
 1707SOL     OW12119   1.154   4.368   1.242  0.3856  0.0418 -0.2220
 1707SOL    HW112120   1.227   4.310   1.204  1.2891  0.6469  0.5924
 1707SOL    HW212121   1.182   4.464   1.237  0.1929  0.1765  1.3124
 1708SOL     OW12122   2.280   6.051   4.771  0.1337 -0.4641 -0.0643
 1708SOL    HW112123   2.219   6.028   4.846 -0.1673 -0.1878 -0.2266
 1708SOL    HW212124   2.373   6.021   4.794 -0.2835 -2.0616 -0.3648
 1709SOL     OW12125   4.451   1.457   5.000 -0.3917 -0.6358  0.0420
 1709SOL    HW112126   4.406   1.379   4.957  1.0247 -1.1027 -0.6220
 1709SOL    HW212127   4.456   1.532   4.935  0.4196 -0.8318 -0.1279
 1710SOL     OW12128   6.536   5.685   0.555  0.1314 -0.1028  0.4890
 1710SOL    HW112129   6.528   5.685   0.456 -1.5947 -1.5840  0.6111
 1710SOL    HW212130   6.574   5.597   0.586  0.1411  0.1356  1.1706
 1711SOL     OW12131   5.846   4.873   7.353  0.2657 -0.5138 -0.5979
 1711SOL    HW112132   5.863   4.780   7.385  1.9352 -1.0987 -3.0596
 1711SOL    HW212133   5.760   4.876   7.304  0.6733 -0.9835 -1.3446
 1712SOL     OW12134   4.652   3.328   6.584 -0.0449  0.2080  0.0140
 1712SOL    HW112135   4.662   3.249   6.523 -0.2536  0.8209 -0.8172
 1712SOL    HW212136   4.681   3.302   6.676  3.2116  0.1216 -0.9771
 1713SOL     OW12137   5.437   6.329   5.610  0.2978 -0.2106  0.0336
 1713SOL    HW112138   5.372   6.318   5.535 -1.1077 -0.7081  1.3073
 1713SOL    HW212139   5.446   6.425   5.633  0.3308 -0.1045 -0.4131
 1714SOL     OW12140   4.224   4.321   3.024 -0.0562 -0.6478  0.2768
 1714SOL    HW112141   4.147   4.310   3.088  0.2878  0.1324  0.8367
 1714SOL    HW212142   4.254   4.231   2.993 -1.4397 -0.9512 -0.2428
 1715SOL     OW12143   2.613   4.971   1.286 -0.4789  0.3915 -0.3149
 1715SOL    HW112144   2.712   4.981   1.292 -0.6106  2.0227 -0.6675
 1715SOL    HW212145   2.590   4.883   1.244  0.7612 -1.4828  2.7556
 1716SOL     OW12146   3.031   4.176   3.179 -0.6916 -0.6480  0.3492
 1716SOL    HW112147   3.096   4.106   3.149 -2.4924 -1.7371 -1.0699
 1716SOL    HW212148   2.958   4.186   3.112  1.6358  5.5912 -1.6150
 1717SOL     OW12149   2.294   6.156   0.617  0.0575 -0.2482  0.0823
 1717SOL    HW112150   2.317   6.190   0.708 -1.2640  0.7810  0.0559
 1717SOL    HW212151   2.202   6.116   0.619  0.2772 -0.8078 -0.6567
 1718SOL     OW12152   3.555   4.939   7.012 -0.1444 -0.3381  0.4724
 1718SOL    HW112153   3.580   5.022   6.961 -0.0206 -0.6629  0.0006
 1718SOL    HW212154   3.537   4.963   7.108  1.5303 -0.0206  0.7193
 1719SOL     OW12155   6.535   1.404   1.805 -0.1115 -0.5503  0.1443
 1719SOL    HW112156   6.552   1.381   1.709 -1.9362 -1.0241 -0.0814
 1719SOL    HW212157   6.505   1.499   1.811 -0.4825 -0.6693  0.1859
 1720SOL     OW12158   6.643   4.306   5.250 -0.0435  0.3079  0.0897
 1720SOL    HW112159   6.704   4.272   5.178  0.6918  0.2047  0.7668
 1720SOL    HW212160   6.696   4.343   5.325 -0.7920 -0.5159  1.0445
 1721SOL     OW12161   3.402   3.107   7.059  0.0223  0.1220  0.0158
 1721SOL    HW112162   3.434   3.202   7.067 -0.6115  0.3207  0.3139
 1721SOL    HW212163   3.329   3.103   6.991 -2.0134  0.4212  2.0972
 1722SOL     OW12164   6.001   6.544   5.315  0.3915 -0.3706  0.5727
 1722SOL    HW112165   6.077   6.594   5.272 -0.4392  0.8982  0.5579
 1722SOL    HW212166   5.931   6.609   5.343 -1.2336 -1.6407 -0.4806
 1723SOL     OW12167   1.129   0.466   2.275  0.2404 -0.1002 -0.4275
 1723SOL    HW112168   1.056   0.494   2.213  0.6362 -1.7800 -1.6754
 1723SOL    HW212169   1.199   0.417   2.224  1.3854 -0.0437  1.0676
 1724SOL     OW12170   2.614   0.629   6.529  0.2965  0.3809 -0.5734
 1724SOL    HW112171   2.606   0.531   6.517  0.1817  0.2771  0.3430
 1724SOL    HW212172   2.694   0.662   6.477  0.5915 -0.2534 -0.5298
 1725SOL     OW12173   5.588   4.785   0.568 -0.1766 -0.3047 -0.8695
 1725SOL    HW112174   5.649   4.712   0.600  1.1553  1.1668 -0.0374
 1725SOL    HW212175   5.553   4.760   0.477 -1.3158 -2.9011  0.2258
 1726SOL     OW12176   3.917   6.341   5.547  0.3365 -0.0748 -0.3797
 1726SOL    HW112177   3.997   6.305   5.595  0.5734 -0.7739 -1.2915
 1726SOL    HW212178   3.927   6.326   5.449 -0.9020 -0.1503 -0.5069
 1727SOL     OW12179   2.123   5.039   0.089 -0.1015  0.2353 -0.3703
 1727SOL    HW112180   2.175   4.986   0.156 -0.3834 -0.7205 -0.9071
 1727SOL    HW212181   2.125   5.136   0.115  1.4254  0.1366 -0.0432
 1728SOL     OW12182   0.428   5.320   0.780 -0.2853 -0.2476 -0.3534
 1728SOL    HW112183   0.392   5.408   0.751 -0.2649 -0.6889 -1.7607
 1728SOL    HW212184   0.511   5.300   0.728  0.8951 -0.1415  1.4506
 1729SOL     OW12185   6.105   6.713   1.748 -0.1894 -0.5276  0.1869
 1729SOL    HW112186   6.105   6.639   1.680 -1.2621  0.1402 -0.5450
 1729SOL    HW212187   6.056   6.792   1.712  2.0311  1.0200  0.4641
 1730SOL     OW12188   7.095   6.993   6.005 -0.1468  0.0507 -0.2165
 1730SOL    HW112189   7.111   6.904   6.047 -0.0076  1.0464  1.9611
 1730SOL    HW212190   7.008   6.992   5.956 -0.9862 -0.7982  1.2593
 1731SOL     OW12191   1.910   5.238   0.329 -0.8025 -0.3679 -0.1781
 1731SOL    HW112192   1.998   5.246   0.282  0.4130  0.3298  2.1630
 1731SOL    HW212193   1.860   5.324   0.320  0.7853  0.8981  2.3713
 1732SOL     OW12194   5.999   5.926   4.227  0.1978 -0.4445  0.2012
 1732SOL    HW112195   6.050   5.883   4.301 -1.0241 -1.1640  0.6407
 1732SOL    HW212196   5.933   5.861   4.189 -0.1002  0.3323 -0.6424
 1733SOL     OW12197   4.176   3.005   3.274 -0.2984 -0.0753  0.0882
 1733SOL    HW112198   4.200   3.095   3.311 -2.4584  0.3321  0.5234
 1733SOL    HW212199   4.175   3.009   3.174 -1.3249  0.6507  0.1175
 1734SOL     OW12200   5.522   3.423   5.338 -0.2811  0.1249 -0.4059
 1734SOL    HW112201   5.470   3.409   5.254 -0.3057 -0.6877 -0.2546
 1734SOL    HW212202   5.560   3.336   5.369  0.1015  0.4968  0.1834
 1735SOL     OW12203   2.860   7.297   0.022 -1.0549  0.2593  0.9832
 1735SOL    HW112204   2.821   7.222  -0.032 -0.9416 -0.6302  2.1096
 1735SOL    HW212205   2.878   7.265   0.115  0.3902  1.2634  1.0630
 1736SOL     OW12206   5.182   2.169   6.121 -0.1845 -0.6902  0.8688
 1736SOL    HW112207   5.248   2.095   6.113  0.3023  0.0309 -2.7053
 1736SOL    HW212208   5.229   2.254   6.145 -0.1374 -0.6502  0.6340
 1737SOL     OW12209   4.387   1.458   6.829  0.0768 -0.5459  0.9630
 1737SOL    HW112210   4.352   1.510   6.906  0.8597 -0.6358  1.3862
 1737SOL    HW212211   4.477   1.421   6.852  0.3067 -0.5843  0.0141
 1738SOL     OW12212   3.674   3.082   5.746 -0.2720  0.5252 -0.2630
 1738SOL    HW112213   3.678   3.178   5.771 -1.8710  1.0870 -2.0063
 1738SOL    HW212214   3.616   3.033   5.811 -2.4679  1.4973 -1.4205
 1739SOL     OW12215   1.153   4.208   7.178  0.0375 -0.0329  0.4128
 1739SOL    HW112216   1.106   4.122   7.158  0.8748 -0.2533 -0.6570
 1739SOL    HW212217   1.198   4.202   7.267 -0.2247 -0.5658  0.5095
 1740SOL     OW12218   6.885   4.519   1.498  0.0465 -0.2299 -0.0282
 1740SOL    HW112219   6.911   4.553   1.588  1.0330  0.6284 -0.6324
 1740SOL    HW212220   6.846   4.594   1.444 -2.5635 -1.1986  0.4118
 1741SOL     OW12221   4.283   4.340   1.428 -0.2971 -0.0914  0.0090
 1741SOL    HW112222   4.333   4.365   1.511  0.2168 -0.7306 -0.1075
 1741SOL    HW212223   4.330   4.379   1.349 -0.8152  0.5587  0.0222
 1742SOL     OW12224   4.885   6.593   6.415 -0.2598 -0.1439  0.1312
 1742SOL    HW112225   4.822   6.661   6.452  0.0316  0.9719 -1.3554
 1742SOL    HW212226   4.979   6.620   6.435 -0.1691 -0.5017  0.1906
 1743SOL     OW12227   3.480   4.698   3.023 -0.0154 -0.7730  0.1114
 1743SOL    HW112228   3.513   4.619   3.075  0.7705  0.0624  0.9235
 1743SOL    HW212229   3.491   4.780   3.078  1.9286  0.3054 -1.8063
 1744SOL     OW12230   2.493   4.106   1.190 -0.5277 -0.0955 -0.1801
 1744SOL    HW112231   2.455   4.124   1.099  0.9177  0.1616 -0.7523
 1744SOL    HW212232   2.420   4.080   1.252 -1.6312  0.4003 -1.2477
 1745SOL     OW12233   5.459   0.470   3.370 -0.2949  0.3440  0.1801
 1745SOL    HW112234   5.464   0.521   3.284  0.8087  1.0051  0.6187
 1745SOL    HW212235   5.404   0.387   3.357  0.3538  0.1340 -1.3171
 1746SOL     OW12236   6.186   1.789   7.281 -0.5879  0.2265 -0.1877
 1746SOL    HW112237   6.246   1.712   7.260  1.1106  1.4480  0.1133
 1746SOL    HW212238   6.096   1.754   7.306 -0.0299 -1.6336 -0.6757
 1747SOL     OW12239   1.339   2.725   1.082 -0.4456 -0.7700 -0.3506
 1747SOL    HW112240   1.359   2.749   0.987  1.9339  3.0876  1.0423
 1747SOL    HW212241   1.423   2.693   1.126 -1.4622 -2.1553  0.6310
 1748SOL     OW12242   1.801   1.358   1.725  0.1782  0.7324  0.1872
 1748SOL    HW112243   1.714   1.354   1.774  0.1947 -0.5028  0.1305
 1748SOL    HW212244   1.845   1.446   1.741  0.0460  0.4580  2.1502
 1749SOL     OW12245   4.399   3.537   2.814 -0.4196  0.0251 -0.2139
 1749SOL    HW112246   4.457   3.570   2.740 -1.1456 -1.0764 -1.2926
 1749SOL    HW212247   4.453   3.480   2.876 -0.3020 -0.9414 -1.1785
 1750SOL     OW12248   5.358   5.398   7.351  0.3409 -0.4576 -0.3917
 1750SOL    HW112249   5.273   5.437   7.387 -0.0964 -0.1191 -1.7503
 1750SOL    HW212250   5.341   5.305   7.319  0.6107 -0.5836 -0.1689
 1751SOL     OW12251   6.832   5.119   5.626 -0.1850 -0.1016  0.1054
 1751SOL    HW112252   6.756   5.167   5.583  0.0586 -0.1463 -0.3863
 1751SOL    HW212253   6.900   5.184   5.657 -2.0984  0.2188  3.9283
 1752SOL     OW12254   5.911   5.504   1.085  0.9977  0.3645  0.3866
 1752SOL    HW112255   5.912   5.572   1.012 -1.2525 -0.4672 -0.4512
 1752SOL    HW212256   5.915   5.412   1.045 -1.9200 -0.1489  1.1569
 1753SOL     OW12257   0.006   2.969   3.774 -0.3943 -0.1145 -0.2188
 1753SOL    HW112258   0.064   3.049   3.789  1.3783 -1.5170  0.6498
 1753SOL    HW212259   0.032   2.925   3.688  2.2079 -2.6265  1.7287
 1754SOL     OW12260   3.974   3.611   5.773  0.0819  0.5299 -0.2759
 1754SOL    HW112261   3.908   3.600   5.699  0.5490 -1.6142 -0.4112
 1754SOL    HW212262   4.025   3.696   5.760 -1.1777  1.1504 -1.3229
 1755SOL     OW12263   5.750   5.303   6.339  0.6430 -0.1540 -0.0005
 1755SOL    HW112264   5.840   5.338   6.311  0.6070  0.7704  0.9996
 1755SOL    HW212265   5.762   5.231   6.408  0.6148  0.0548  0.2230
 1756SOL     OW12266   2.991   5.892   1.393  0.3706 -0.1096  0.1404
 1756SOL    HW112267   2.903   5.935   1.373  0.7345  0.5407 -0.0811
 1756SOL    HW212268   2.984   5.840   1.478 -0.1661  0.1125  0.2351
 1757SOL     OW12269   6.003   5.519   5.793 -0.7309 -0.4831 -0.0312
 1757SOL    HW112270   6.018   5.589   5.864 -3.8133  2.0469 -1.7340
 1757SOL    HW212271   6.051   5.546   5.710 -0.8998 -1.0361 -0.3041
 1758SOL     OW12272   3.411   5.220   7.009 -0.5802 -0.2391  0.6223
 1758SOL    HW112273   3.437   5.293   7.073  0.0760 -1.0280  1.2534
 1758SOL    HW212274   3.320   5.186   7.034 -0.9230  0.3972  0.2817
 1759SOL     OW12275   7.359   0.349   6.206  0.7049  0.0998 -0.0358
 1759SOL    HW112276   7.333   0.269   6.152  1.6960 -0.7667  0.7665
 1759SOL    HW212277   7.287   0.418   6.198  0.1793 -0.5668 -1.3206
 1760SOL     OW12278   0.160   3.558   3.150 -0.1555 -0.2322 -0.3449
 1760SOL    HW112279   0.109   3.535   3.233  0.5655 -1.0281 -0.1129
 1760SOL    HW212280   0.123   3.642   3.110  0.0812  0.6630  1.2809
 1761SOL     OW12281   2.677   4.361   6.979 -0.3914  0.2188 -0.2757
 1761SOL    HW112282   2.761   4.401   7.015 -0.1642 -0.5986  0.0985
 1761SOL    HW212283   2.642   4.418   6.905  2.1473 -1.0932 -2.5243
 1762SOL     OW12284   6.123   4.092   0.598  0.5815 -0.0497 -0.0015
 1762SOL    HW112285   6.213   4.135   0.592  0.2038  0.3978 -2.8795
 1762SOL    HW212286   6.123   4.006   0.547 -0.0909 -1.0178  1.5959
 1763SOL     OW12287   4.541   5.393   3.545 -0.0818 -0.4420 -0.6531
 1763SOL    HW112288   4.452   5.438   3.545  0.1285  0.0192  0.7219
 1763SOL    HW212289   4.567   5.372   3.640 -0.1597 -3.4282 -1.2408
 1764SOL     OW12290   5.606   6.918   2.347  0.0321 -0.1378  0.2054
 1764SOL    HW112291   5.529   6.957   2.398  0.2786  2.2981 -1.1872
 1764SOL    HW212292   5.684   6.981   2.353  1.2359 -1.5650 -0.1695
 1765SOL     OW12293   7.019   0.512   0.588  0.3654 -0.2306  0.1965
 1765SOL    HW112294   7.017   0.414   0.565 -1.3315 -0.2811  0.4532
 1765SOL    HW212295   7.044   0.523   0.684 -0.0093 -0.4600  0.3245
 1766SOL     OW12296   4.072   2.538   4.845  0.4283 -0.0094  0.0840
 1766SOL    HW112297   4.059   2.446   4.808  0.2443  0.6224 -1.4634
 1766SOL    HW212298   4.060   2.605   4.772  0.0264  1.2796  1.3064
 1767SOL     OW12299   5.311   2.938   2.177 -0.1025  0.3787 -0.1092
 1767SOL    HW112300   5.289   3.030   2.209  0.1065  1.0544 -1.8678
 1767SOL    HW212301   5.378   2.943   2.103  0.2536 -1.2182  0.0893
 1768SOL     OW12302   1.971   2.860   6.311 -0.3146 -0.1224 -0.2506
 1768SOL    HW112303   1.939   2.768   6.289 -1.0822  0.6552 -2.5590
 1768SOL    HW212304   2.061   2.875   6.270  0.4353 -0.3206  1.3140
 1769SOL     OW12305   0.584   2.309   4.586 -0.1724 -0.1715  0.5234
 1769SOL    HW112306   0.593   2.210   4.589  0.6833 -0.0712  1.2271
 1769SOL    HW212307   0.621   2.343   4.500 -3.3060 -0.7495 -1.1242
 1770SOL     OW12308   0.173   3.785   6.253  0.2607  0.5283 -0.5353
 1770SOL    HW112309   0.113   3.750   6.325  1.0238  1.2387  0.4701
 1770SOL    HW212310   0.264   3.745   6.262  0.4896  0.9684 -0.8205
 1771SOL     OW12311   3.716   5.117   5.159 -0.5449 -0.1178  0.3740
 1771SOL    HW112312   3.624   5.083   5.139 -0.2730 -2.4438  2.7752
 1771SOL    HW212313   3.782   5.042   5.146  0.8163  1.0712  0.3210
 1772SOL     OW12314   5.070   4.849   3.443 -0.0056  0.1713 -0.1513
 1772SOL    HW112315   5.033   4.788   3.514  0.7244  1.8557  1.7156
 1772SOL    HW212316   4.998   4.908   3.409  0.0635  0.7124  0.6230
 1773SOL     OW12317   0.832   5.552   1.623  0.2493  0.2418 -0.0836
 1773SOL    HW112318   0.903   5.605   1.578  0.9976 -0.4293  0.2757
 1773SOL    HW212319   0.748   5.605   1.628  0.3817  0.6059 -1.5690
 1774SOL     OW12320   3.505   2.364   1.018  0.8641  0.0196  0.2954
 1774SOL    HW112321   3.444   2.442   1.001  0.7407  0.1805  1.4141
 1774SOL    HW212322   3.541   2.370   1.111  1.7678 -0.6432 -0.0095
 1775SOL     OW12323   6.247   6.228   3.924 -0.9531  0.0025 -0.0144
 1775SOL    HW112324   6.184   6.209   3.849  0.3481  0.4445 -1.2285
 1775SOL    HW212325   6.341   6.228   3.891 -0.3580  0.3069  1.5900
 1776SOL     OW12326   2.360   2.227   2.258  0.2969  0.5193  0.1947
 1776SOL    HW112327   2.428   2.200   2.326  0.5049 -0.4201 -0.3839
 1776SOL    HW212328   2.333   2.322   2.275  0.0389  0.1813  1.8471
 1777SOL     OW12329   7.144   6.638   1.420  0.1911  0.2349 -0.8400
 1777SOL    HW112330   7.068   6.699   1.443 -1.8535 -1.4910 -2.7826
 1777SOL    HW212331   7.210   6.686   1.363 -0.4602  1.1530 -0.8319
 1778SOL     OW12332   1.242   2.452   2.730  0.0157  0.3651  0.0936
 1778SOL    HW112333   1.176   2.479   2.800 -0.4240  0.3216 -0.3008
 1778SOL    HW212334   1.197   2.394   2.663  0.8148 -0.8872  0.6229
 1779SOL     OW12335   6.008   4.478   2.741 -0.0452  0.2478 -0.3783
 1779SOL    HW112336   5.983   4.417   2.665 -0.9438 -0.4004  0.4229
 1779SOL    HW212337   5.947   4.557   2.741 -0.5349 -0.1223  0.1036
 1780SOL     OW12338   4.656   4.189   3.085 -0.6666 -0.5319  0.0508
 1780SOL    HW112339   4.639   4.181   2.987  0.0265 -3.7116  0.1277
 1780SOL    HW212340   4.600   4.123   3.134 -0.9687  0.9848  1.8313
 1781SOL     OW12341   4.659   1.971   6.090  0.3829  0.5849  0.3239
 1781SOL    HW112342   4.742   1.981   6.035  1.8263 -0.1020  2.3045
 1781SOL    HW212343   4.652   2.048   6.154  0.4159 -0.2460  1.3337
 1782SOL     OW12344   4.348   4.149   5.445 -0.5447  0.5399 -0.1911
 1782SOL    HW112345   4.429   4.146   5.503 -0.6940  1.6585  0.0876
 1782SOL    HW212346   4.369   4.106   5.357 -0.0326 -0.3100  0.3418
 1783SOL     OW12347   3.172   6.206   0.544 -0.3122 -0.1813 -0.3452
 1783SOL    HW112348   3.263   6.165   0.546  0.2275  0.9953 -0.4014
 1783SOL    HW212349   3.113   6.160   0.610  0.7858  0.1322  0.8695
 1784SOL     OW12350   0.514   0.923   2.037  0.0533  0.0597 -0.5153
 1784SOL    HW112351   0.442   0.954   1.975  1.3128  0.1394 -1.9558
 1784SOL    HW212352   0.592   0.986   2.032  0.1803  0.0790  1.1666
 1785SOL     OW12353   4.348   1.419   1.443 -0.4941  0.0982  0.3803
 1785SOL    HW112354   4.341   1.320   1.433 -2.1721  0.1889  0.3868
 1785SOL    HW212355   4.323   1.445   1.536  1.0809  0.4439  0.7223
 1786SOL     OW12356   3.966   5.965   5.553  0.1578 -0.1912 -0.3340
 1786SOL    HW112357   3.973   6.017   5.468 -2.8031  0.9050  0.0486
 1786SOL    HW212358   3.994   5.870   5.536 -0.0528  0.0962 -2.4210
 1787SOL     OW12359   1.178   0.731   1.468  0.0021  0.0950  0.1474
 1787SOL    HW112360   1.110   0.687   1.411  0.3934  0.4732 -0.6127
 1787SOL    HW212361   1.165   0.702   1.563 -1.9394  1.0322  0.2063
 1788SOL     OW12362   3.496   6.628   1.772 -0.0378  0.0419  0.4695
 1788SOL    HW112363   3.418   6.629   1.709 -1.5534 -2.7253  2.2425
 1788SOL    HW212364   3.480   6.694   1.846 -1.2143 -1.2787  1.4098
 1789SOL     OW12365   0.188   0.210   6.344 -0.1238  0.2263  0.0297
 1789SOL    HW112366   0.186   0.205   6.444 -0.0998 -0.5347 -0.0113
 1789SOL    HW212367   0.143   0.295   6.315 -1.7602 -0.4092  0.6094
 1790SOL     OW12368   4.155   1.351   1.150  0.1197  0.1758 -0.0523
 1790SOL    HW112369   4.088   1.279   1.128  0.8403  0.3482 -3.0204
 1790SOL    HW212370   4.245   1.310   1.161  0.3731  0.5145 -0.8586
 1791SOL     OW12371   6.994   5.605   7.134 -0.0698  0.1485 -0.0204
 1791SOL    HW112372   7.061   5.649   7.074  1.3275 -1.4433  0.3209
 1791SOL    HW212373   7.037   5.527   7.181 -2.1054 -0.7881  0.3705
 1792SOL     OW12374   5.481   2.931   0.463 -0.1664  0.0238  0.1181
 1792SOL    HW112375   5.539   3.009   0.440  1.2211 -1.0715 -0.1563
 1792SOL    HW212376   5.409   2.921   0.394 -0.6355  1.3315  0.4093
 1793SOL     OW12377   0.915   3.586   5.528  0.1871 -0.1733 -0.1637
 1793SOL    HW112378   0.885   3.681   5.520  0.3770 -0.0181  0.8456
 1793SOL    HW212379   0.917   3.543   5.438  1.1564  1.0989 -0.7619
 1794SOL     OW12380   0.846   0.358   1.405 -0.2344 -0.1024  0.4427
 1794SOL    HW112381   0.755   0.345   1.445  0.4244 -1.5094  1.5759
 1794SOL    HW212382   0.851   0.309   1.318 -1.1154  1.4712 -0.5048
 1795SOL     OW12383   2.068   5.531   3.733  0.0017  0.4605  0.0119
 1795SOL    HW112384   2.134   5.523   3.659  1.4590  1.3514  1.1823
 1795SOL    HW212385   1.986   5.478   3.711  0.9353 -0.3209 -1.6422
 1796SOL     OW12386   3.412   4.340   6.304  0.6350 -0.1361 -0.2601
 1796SOL    HW112387   3.476   4.327   6.228  0.0210 -3.0570 -0.3320
 1796SOL    HW212388   3.335   4.277   6.294 -1.2761  1.9118  0.9132
 1797SOL     OW12389   5.598   3.295   7.036 -0.0065 -0.4398 -0.2539
 1797SOL    HW112390   5.603   3.390   7.065 -0.4090 -0.1710 -1.0414
 1797SOL    HW212391   5.502   3.270   7.021  0.2380 -0.3620 -2.0287
 1798SOL     OW12392   0.401   1.646   3.464 -0.0652  0.3323 -0.2132
 1798SOL    HW112393   0.477   1.637   3.401 -0.3260 -0.7386 -0.3890
 1798SOL    HW212394   0.375   1.555   3.498 -0.7555  0.7650  0.4377
 1799SOL     OW12395   5.766   2.719   0.995 -0.1334  0.2301 -0.2435
 1799SOL    HW112396   5.715   2.748   0.913  1.1742  0.8289 -0.8663
 1799SOL    HW212397   5.792   2.799   1.048 -0.0779 -0.0908  0.2136
 1800SOL     OW12398   4.571   0.872   4.261  0.5218  0.3141 -0.0882
 1800SOL    HW112399   4.574   0.781   4.303  0.4808  0.4366  0.1821
 1800SOL    HW212400   4.487   0.919   4.287  0.2160  0.1611 -0.7955
 1801SOL     OW12401   6.294   2.191   5.735 -0.3156 -0.0196 -0.0438
 1801SOL    HW112402   6.243   2.275   5.716 -0.2085  0.3811  1.4008
 1801SOL    HW212403   6.392   2.208   5.722 -0.3801 -0.2270 -0.8192
 1802SOL     OW12404   4.599   4.285   3.776  0.0183  0.4939 -0.0155
 1802SOL    HW112405   4.682   4.267   3.723 -0.7095  1.4974 -1.5307
 1802SOL    HW212406   4.591   4.218   3.850  1.5094 -0.3882 -0.6392
 1803SOL     OW12407   2.610   1.700   0.035  0.1556 -1.1767 -0.3222
 1803SOL    HW112408   2.698   1.715   0.079 -1.4486  1.2599  2.2722
 1803SOL    HW212409   2.544   1.665   0.101 -1.7932  0.6159 -1.2013
 1804SOL     OW12410   6.324   1.723   4.783  0.1733  0.5647  0.0787
 1804SOL    HW112411   6.309   1.813   4.824 -0.7732  0.9312 -1.0307
 1804SOL    HW212412   6.421   1.710   4.764  0.4284  0.9673  1.1222
 1805SOL     OW12413   4.091   3.919   0.481  0.2599 -0.5308 -0.3462
 1805SOL    HW112414   4.097   3.824   0.450 -0.8659 -0.5366 -0.5568
 1805SOL    HW212415   4.001   3.936   0.521  0.4352  0.4675 -0.3503
 1806SOL     OW12416   1.854   4.345   5.491  0.0907 -0.3078 -0.3617
 1806SOL    HW112417   1.890   4.259   5.525 -0.0341  0.1267  0.8839
 1806SOL    HW212418   1.812   4.331   5.402 -1.0068 -1.7582  0.3810
 1807SOL     OW12419   6.092   3.603   2.971 -0.4672 -0.2198 -0.1444
 1807SOL    HW112420   6.169   3.652   3.011 -1.3390 -0.1744  1.5029
 1807SOL    HW212421   6.075   3.519   3.023 -0.1718 -1.3587 -1.8144
 1808SOL     OW12422   3.883   3.824   5.466  0.3895  0.3677  0.2529
 1808SOL    HW112423   3.863   3.770   5.384 -0.3615 -0.0016  0.6736
 1808SOL    HW212424   3.863   3.770   5.548  1.9102  0.4423  0.6900
 1809SOL     OW12425   3.539   3.608   0.540  0.5169 -0.4897 -0.3011
 1809SOL    HW112426   3.626   3.636   0.582  1.9174 -0.8591 -2.8906
 1809SOL    HW212427   3.533   3.508   0.540  0.1136 -0.4672 -0.2091
 1810SOL     OW12428   2.372   5.226   3.147 -0.5658 -0.2244  0.1814
 1810SOL    HW112429   2.294   5.192   3.199 -0.9911  1.8608  0.9442
 1810SOL    HW212430   2.360   5.204   3.050 -2.4530  0.6872  0.1949
 1811SOL     OW12431   5.489   5.137   3.864 -0.6970  0.5357 -0.4802
 1811SOL    HW112432   5.449   5.133   3.956  0.0984  0.2030 -0.1437
 1811SOL    HW212433   5.429   5.189   3.804 -0.7042  1.6687  0.4928
 1812SOL     OW12434   5.496   6.019   1.459  0.5128 -0.0870  0.5278
 1812SOL    HW112435   5.437   6.097   1.481 -0.7504 -1.1018  0.8282
 1812SOL    HW212436   5.466   5.978   1.373  1.0978 -0.3137  0.4301
 1813SOL     OW12437   2.191   0.741   6.838 -0.0360  0.2630 -0.4359
 1813SOL    HW112438   2.247   0.659   6.831 -0.6151 -0.0316 -1.7269
 1813SOL    HW212439   2.185   0.770   6.934  1.4314 -0.3147 -0.1700
 1814SOL     OW12440   2.582   3.447   2.055  0.3189  0.3394  0.7684
 1814SOL    HW112441   2.633   3.364   2.075  0.3373  0.0638 -0.3987
 1814SOL    HW212442   2.487   3.437   2.086  0.6522  0.3860  1.8161
 1815SOL     OW12443   4.737   6.372   5.396  0.3612 -0.8042  0.1112
 1815SOL    HW112444   4.742   6.450   5.334 -0.4077 -0.1025  0.9172
 1815SOL    HW212445   4.642   6.356   5.423  0.6779 -1.1451  1.0514
 1816SOL     OW12446   2.304   5.550   3.984 -0.7160  0.4089  0.0045
 1816SOL    HW112447   2.233   5.555   3.914 -0.6082  2.6659  0.0140
 1816SOL    HW212448   2.358   5.635   3.983 -0.0131  0.0247  2.0646
 1817SOL     OW12449   6.566   5.767   3.436 -0.2437  0.1467  0.4526
 1817SOL    HW112450   6.558   5.668   3.449 -2.7047  0.5035  1.9780
 1817SOL    HW212451   6.562   5.788   3.338  0.0423 -1.2445  0.1338
 1818SOL     OW12452   4.695   3.887   0.160 -0.1250 -0.1957  0.3285
 1818SOL    HW112453   4.774   3.934   0.199 -1.9676  1.7922  1.7527
 1818SOL    HW212454   4.706   3.879   0.061  1.9731 -0.1880  0.5549
 1819SOL     OW12455   3.100   2.327   0.628  0.0212  0.6498 -0.1088
 1819SOL    HW112456   3.173   2.323   0.697 -0.5095 -0.3355  0.4086
 1819SOL    HW212457   3.043   2.407   0.645  0.1115  0.6129  0.3865
 1820SOL     OW12458   5.999   4.050   6.780 -0.2067 -0.2929 -0.0546
 1820SOL    HW112459   5.994   4.097   6.692 -1.0005  0.5529  0.4334
 1820SOL    HW212460   6.040   4.110   6.848 -0.4043 -0.6218  0.3624
 1821SOL     OW12461   3.056   2.484   3.974  0.7121 -0.4434 -0.3446
 1821SOL    HW112462   3.108   2.398   3.967 -1.8784 -1.9708 -1.5381
 1821SOL    HW212463   2.970   2.467   4.021 -0.9214  0.9705 -2.7364
 1822SOL     OW12464   3.468   4.407   4.873 -0.5207 -0.0120 -0.0586
 1822SOL    HW112465   3.376   4.368   4.878 -0.5112  0.0312  0.4860
 1822SOL    HW212466   3.478   4.458   4.788 -0.8543 -0.3921 -0.3261
 1823SOL     OW12467   3.163   0.503   2.206 -0.7607  0.1069 -0.7704
 1823SOL    HW112468   3.147   0.451   2.290 -0.1663 -0.1941 -0.8402
 1823SOL    HW212469   3.259   0.495   2.180 -0.6481  1.2927 -0.7510
 1824SOL     OW12470   0.444   1.600   0.475  0.4283  0.1183 -0.6613
 1824SOL    HW112471   0.398   1.664   0.414 -2.0836  0.6354  1.7190
 1824SOL    HW212472   0.412   1.507   0.456  0.9015  0.0572 -1.2089
 1825SOL     OW12473   4.602   6.472   4.289  0.2092 -0.2230  0.5228
 1825SOL    HW112474   4.669   6.493   4.361  0.1780 -4.2987  1.8701
 1825SOL    HW212475   4.631   6.390   4.241 -2.8046 -0.8875 -0.2199
 1826SOL     OW12476   7.004   5.100   1.847 -0.0773 -0.4471 -0.6005
 1826SOL    HW112477   7.042   5.008   1.853 -0.9629 -0.7343  0.8604
 1826SOL    HW212478   6.911   5.095   1.811 -0.9021 -0.3621  1.4415
 1827SOL     OW12479   3.421   1.331   5.746  0.3036 -0.3740 -0.1604
 1827SOL    HW112480   3.387   1.423   5.766  1.4783  0.3648 -1.4871
 1827SOL    HW212481   3.498   1.311   5.807  2.0636  0.7747 -1.9349
 1828SOL     OW12482   2.871   4.366   2.491 -0.4897 -0.3467 -0.3750
 1828SOL    HW112483   2.775   4.355   2.467 -0.6016 -0.5885  0.1756
 1828SOL    HW212484   2.880   4.438   2.559 -0.3294 -0.6275 -0.0969
 1829SOL     OW12485   3.624   5.567   1.323  0.3247 -0.0588  0.2081
 1829SOL    HW112486   3.627   5.583   1.422  0.6803 -0.4511  0.2638
 1829SOL    HW212487   3.700   5.508   1.297  0.7838  0.8138 -0.4470
 1830SOL     OW12488   1.604   2.645   1.993  0.4853 -0.0449 -0.2294
 1830SOL    HW112489   1.513   2.628   2.030 -0.4680  1.1682 -1.9760
 1830SOL    HW212490   1.627   2.574   1.927  1.2398 -0.9286  0.9756
 1831SOL     OW12491   6.245   0.042   0.484  0.7235 -0.1020 -0.1994
 1831SOL    HW112492   6.315   0.095   0.437 -1.3331  2.4906 -0.4280
 1831SOL    HW212493   6.169   0.022   0.422  0.5551 -1.6076  0.4499
 1832SOL     OW12494   5.318   3.772   6.403 -0.2781 -0.3238  0.0009
 1832SOL    HW112495   5.387   3.811   6.341  0.0187  0.3428  0.7451
 1832SOL    HW212496   5.231   3.820   6.390 -0.0404  0.2730  0.5676
 1833SOL     OW12497   4.796   5.954   7.247  0.0911 -0.1610 -0.1019
 1833SOL    HW112498   4.797   6.011   7.329 -1.2823  2.0771 -1.5642
 1833SOL    HW212499   4.784   5.858   7.272  2.1876  0.1832  2.4263
 1834SOL     OW12500   2.046   5.673   4.657 -0.2564  0.3429  0.5153
 1834SOL    HW112501   1.981   5.679   4.733  0.0330  2.7730  0.5976
 1834SOL    HW212502   2.128   5.726   4.678 -0.4778  1.6634 -1.7604
 1835SOL     OW12503   5.526   6.579   5.354 -0.0476 -0.1079 -0.6780
 1835SOL    HW112504   5.461   6.647   5.320 -0.5289 -0.0154  0.3791
 1835SOL    HW212505   5.556   6.606   5.446 -0.0620 -1.2013 -0.3522
 1836SOL     OW12506   2.127   6.185   6.049 -0.1063  0.0295  0.1154
 1836SOL    HW112507   2.050   6.121   6.044 -3.0350  3.4619 -0.8453
 1836SOL    HW212508   2.158   6.206   5.956 -0.7166  1.7194  0.2734
 1837SOL     OW12509   6.205   2.724   4.518 -0.1307 -0.2458  0.0120
 1837SOL    HW112510   6.150   2.804   4.541  0.9856  0.8752 -1.1440
 1837SOL    HW212511   6.181   2.692   4.426  1.3583  0.4598 -0.6417
 1838SOL     OW12512   2.244   4.285   1.078 -0.4930 -0.6683 -0.2908
 1838SOL    HW112513   2.194   4.352   1.134  0.1356  0.0700 -0.6009
 1838SOL    HW212514   2.340   4.312   1.072 -0.5460 -0.7708 -1.6791
 1839SOL     OW12515   2.360   2.156   1.133 -0.8613 -0.3854  0.4088
 1839SOL    HW112516   2.269   2.147   1.093 -1.1649  0.7020  0.8098
 1839SOL    HW212517   2.429   2.121   1.070 -1.4094  0.4770 -0.6870
 1840SOL     OW12518   4.628   0.090   0.311 -0.2511 -0.1221 -0.6368
 1840SOL    HW112519   4.552   0.074   0.248  0.3488 -0.3632 -1.3097
 1840SOL    HW212520   4.675   0.174   0.285 -0.5931  0.2902  0.0839
 1841SOL     OW12521   4.513   3.837   0.613 -0.2136  0.4015  0.6892
 1841SOL    HW112522   4.561   3.772   0.554  0.9192  2.4561 -0.7098
 1841SOL    HW212523   4.580   3.891   0.665 -1.0451  1.8925  0.2410
 1842SOL     OW12524   1.928   2.048   5.754  0.5996 -0.6925 -0.3021
 1842SOL    HW112525   1.879   1.976   5.705 -0.3249 -1.2578  1.3944
 1842SOL    HW212526   1.905   2.137   5.715  0.5211 -1.1991 -1.4116
 1843SOL     OW12527   6.175   0.635   0.971  0.0213  0.3908 -0.3988
 1843SOL    HW112528   6.163   0.586   0.884  1.4997  0.3116 -0.5610
 1843SOL    HW212529   6.136   0.580   1.045  0.0366 -0.1934 -0.8176
 1844SOL     OW12530   4.212   0.942   2.947 -0.3341  0.2662  0.4548
 1844SOL    HW112531   4.312   0.945   2.944 -0.3301 -0.4054 -0.3547
 1844SOL    HW212532   4.181   0.929   3.041  0.3426  0.4725  0.7024
 1845SOL     OW12533   3.711   3.590   1.018  0.8716  0.1304  0.0469
 1845SOL    HW112534   3.700   3.687   1.039  0.2629 -0.0151  0.4055
 1845SOL    HW212535   3.701   3.536   1.102  0.6844 -0.2836 -0.2360
 1846SOL     OW12536   0.358   3.901   0.758 -0.4510  0.1774  0.1263
 1846SOL    HW112537   0.331   3.985   0.805  0.6370  0.7672 -0.3005
 1846SOL    HW212538   0.292   3.829   0.778 -1.1493  1.0162  0.8442
 1847SOL     OW12539   5.783   3.400   2.659 -0.0068 -0.0001 -0.1157
 1847SOL    HW112540   5.739   3.438   2.740 -0.2974 -3.0571  1.2371
 1847SOL    HW212541   5.882   3.398   2.673  0.0206  0.4322 -0.2554
 1848SOL     OW12542   0.668   6.404   7.220  0.7812 -0.1303  0.2153
 1848SOL    HW112543   0.601   6.443   7.158 -0.5442  0.4088  1.9393
 1848SOL    HW212544   0.701   6.476   7.282  3.2345 -0.3000 -0.8471
 1849SOL     OW12545   4.313   4.733   3.664 -0.0063  0.5396  0.0697
 1849SOL    HW112546   4.365   4.647   3.665  0.3536  0.7239 -1.2898
 1849SOL    HW212547   4.372   4.807   3.630 -0.5141  1.1929  0.6095
 1850SOL     OW12548   4.666   5.984   3.118 -0.4845  0.7844  1.0730
 1850SOL    HW112549   4.675   6.082   3.103 -1.1953  0.8010  0.7470
 1850SOL    HW212550   4.688   5.963   3.214 -0.5839  1.2924  1.2093
 1851SOL     OW12551   1.224   5.354   0.074  0.1521 -0.0887  0.1081
 1851SOL    HW112552   1.261   5.441   0.043 -0.0745  0.7947  2.1939
 1851SOL    HW212553   1.266   5.330   0.162  0.5446 -2.3179 -0.6530
 1852SOL     OW12554   3.968   5.481   6.908  0.2658 -0.2449 -0.0157
 1852SOL    HW112555   4.022   5.411   6.955 -1.0041 -0.6527  0.8683
 1852SOL    HW212556   3.944   5.448   6.817  1.6164  0.0043 -0.4750
 1853SOL     OW12557   6.196   1.667   1.422 -0.0657  0.7930  0.7424
 1853SOL    HW112558   6.149   1.747   1.458  0.0838  0.3726  1.9146
 1853SOL    HW212559   6.129   1.599   1.392 -0.2003  1.7530 -1.2192
 1854SOL     OW12560   3.241   5.401   3.494 -0.6239  0.2162 -0.4128
 1854SOL    HW112561   3.208   5.478   3.440 -0.3931  0.4663 -0.1978
 1854SOL    HW212562   3.298   5.435   3.569  0.4810 -0.2522 -1.0473
 1855SOL     OW12563   0.565   6.480   6.332 -0.0295 -0.4576 -0.1253
 1855SOL    HW112564   0.586   6.418   6.407  0.7829  0.4414  0.4022
 1855SOL    HW212565   0.467   6.481   6.315  0.0522 -2.7717 -0.9158
 1856SOL     OW12566   1.751   1.018   3.136 -0.0773  0.1612 -0.2497
 1856SOL    HW112567   1.793   0.995   3.224  3.4735  1.8568 -1.4305
 1856SOL    HW212568   1.742   0.935   3.081 -1.4836 -0.7576  1.2963
 1857SOL     OW12569   5.492   2.119   5.108  0.2199  0.4141  0.0589
 1857SOL    HW112570   5.501   2.052   5.182  1.1785 -0.1326 -0.5462
 1857SOL    HW212571   5.414   2.178   5.127 -0.2099 -0.4191  0.9610
 1858SOL     OW12572   0.372   3.586   6.477  0.4644 -0.3605 -0.0394
 1858SOL    HW112573   0.367   3.683   6.501 -0.9927 -0.5503  0.5062
 1858SOL    HW212574   0.390   3.532   6.559  2.6838 -0.4469 -0.5712
 1859SOL     OW12575   2.306   0.769   5.343  0.1478 -0.3172 -0.4310
 1859SOL    HW112576   2.358   0.692   5.380  0.4298 -0.6090 -1.4153
 1859SOL    HW212577   2.352   0.854   5.367  0.7123 -0.5377 -0.7262
 1860SOL     OW12578   3.321   6.560   0.805  0.3266  0.0044 -0.2234
 1860SOL    HW112579   3.262   6.552   0.885  1.7065 -0.1966  0.7960
 1860SOL    HW212580   3.400   6.618   0.827  0.4208  0.4298 -1.6195
 1861SOL     OW12581   0.908   5.560   4.189  0.1255 -0.1712  0.0273
 1861SOL    HW112582   1.007   5.579   4.185  0.6082 -2.5841 -0.5387
 1861SOL    HW212583   0.876   5.571   4.282  0.6478  1.9218 -0.0168
 1862SOL     OW12584   2.676   4.768   6.504 -0.4578 -0.3630 -0.3469
 1862SOL    HW112585   2.602   4.718   6.460 -1.5418 -1.5163  2.6633
 1862SOL    HW212586   2.642   4.855   6.540 -0.1981 -0.5880  0.4537
 1863SOL     OW12587   5.223   6.502   1.956 -0.0304  0.4850 -0.3844
 1863SOL    HW112588   5.308   6.529   2.002  0.2379  0.2108 -0.7120
 1863SOL    HW212589   5.221   6.402   1.947  0.6606  0.6259 -2.3714
 1864SOL     OW12590   1.267   3.803   2.278 -0.2711 -0.4223 -0.2173
 1864SOL    HW112591   1.315   3.778   2.362 -1.1564  0.0153  0.4358
 1864SOL    HW212592   1.227   3.721   2.237 -0.4670 -0.5326  0.1905
 1865SOL     OW12593   5.248   3.391   6.590  0.6526 -0.0875  0.2870
 1865SOL    HW112594   5.310   3.470   6.581 -0.3347  0.4745 -1.7469
 1865SOL    HW212595   5.178   3.395   6.519 -1.7909 -0.6907  2.6086
 1866SOL     OW12596   5.644   6.520   6.783  0.4222  0.1025 -0.2540
 1866SOL    HW112597   5.730   6.549   6.824  1.7454 -1.3521 -1.9444
 1866SOL    HW212598   5.662   6.463   6.703 -2.1120  0.5192 -1.1778
 1867SOL     OW12599   7.186   0.746   1.245 -0.3125 -0.0282  0.5791
 1867SOL    HW112600   7.106   0.799   1.273 -1.3989 -0.9499 -0.6928
 1867SOL    HW212601   7.225   0.700   1.325 -0.2334  1.5165  1.4295
 1868SOL     OW12602   2.158   3.389   4.815 -0.1201  0.1038  0.2246
 1868SOL    HW112603   2.085   3.406   4.748  0.3908  0.9659 -0.1151
 1868SOL    HW212604   2.121   3.401   4.907 -0.9269 -1.4746  0.1238
 1869SOL     OW12605   7.166   0.065   6.559 -0.6097 -0.0244 -0.0961
 1869SOL    HW112606   7.196   0.026   6.472 -0.1603 -2.1095  0.9589
 1869SOL    HW212607   7.234   0.044   6.630 -2.0994 -0.4004  1.2469
 1870SOL     OW12608   1.068   6.339   6.947  0.2551  0.1121  0.0643
 1870SOL    HW112609   1.134   6.282   6.997  0.1296  0.5271  0.7035
 1870SOL    HW212610   1.117   6.406   6.891  0.3910 -0.1797 -0.1678
 1871SOL     OW12611   1.267   2.558   6.532 -0.1374  0.5732  0.5278
 1871SOL    HW112612   1.280   2.465   6.566  0.7148 -0.4837 -2.4666
 1871SOL    HW212613   1.169   2.577   6.524 -0.3490 -0.7678 -0.4787
 1872SOL     OW12614   1.150   1.440   2.913  0.2715  0.1063 -0.8518
 1872SOL    HW112615   1.126   1.374   2.983  0.8871  0.2254 -0.5235
 1872SOL    HW212616   1.088   1.519   2.917 -0.1791 -0.2397 -0.9531
 1873SOL     OW12617   4.612   6.979   3.694  0.6753 -0.0961  0.0787
 1873SOL    HW112618   4.514   6.961   3.682  0.8490 -0.7675 -0.3652
 1873SOL    HW212619   4.644   6.933   3.777  1.3042 -2.6448 -1.5051
 1874SOL     OW12620   3.926   3.831   4.986 -0.0627  0.2459 -0.2929
 1874SOL    HW112621   3.847   3.820   4.926 -0.3119  1.5625 -0.2023
 1874SOL    HW212622   3.948   3.928   4.996  0.5369 -0.0135  1.0155
 1875SOL     OW12623   7.130   6.339   6.691 -0.5709  0.1265 -0.3850
 1875SOL    HW112624   7.155   6.432   6.718  0.3477 -0.3105  0.2954
 1875SOL    HW212625   7.115   6.336   6.593  2.4639  0.3470 -0.9205
 1876SOL     OW12626   1.161   4.967   3.502  1.2473 -0.3215  0.1182
 1876SOL    HW112627   1.250   5.006   3.527  0.8339  0.6363  0.1229
 1876SOL    HW212628   1.088   5.018   3.548  0.6943 -1.1604  0.1885
 1877SOL     OW12629   1.920   6.954   2.573 -0.5260 -0.1581 -0.2665
 1877SOL    HW112630   1.967   6.960   2.661 -1.6043  0.3594  0.2953
 1877SOL    HW212631   1.865   7.037   2.560 -0.8958 -0.5370 -1.1251
 1878SOL     OW12632   1.760   3.279   7.056 -0.4897 -0.3270  0.2864
 1878SOL    HW112633   1.737   3.314   6.965 -1.9111  1.2952  1.2398
 1878SOL    HW212634   1.858   3.289   7.072 -0.0616 -1.5226 -1.4201
 1879SOL     OW12635   5.748   5.699   4.923 -0.4599 -0.5427 -0.0998
 1879SOL    HW112636   5.791   5.689   4.833  1.8661  2.9120  0.5434
 1879SOL    HW212637   5.659   5.744   4.912  0.3060  0.8961 -0.6216
 1880SOL     OW12638   1.742   0.803   0.665 -0.2315  0.3548 -0.2386
 1880SOL    HW112639   1.740   0.839   0.572  0.5528 -0.6889 -0.6814
 1880SOL    HW212640   1.822   0.838   0.713  0.9158 -1.2910 -0.8981
 1881SOL     OW12641   2.419   0.597   3.564 -0.7854 -0.2091  0.5808
 1881SOL    HW112642   2.412   0.573   3.661  0.7702 -1.2126  0.4577
 1881SOL    HW212643   2.328   0.624   3.530 -1.6166 -1.1977  1.9555
 1882SOL     OW12644   5.746   6.308   5.472 -0.2891  0.2340  0.1781
 1882SOL    HW112645   5.704   6.219   5.455 -1.2794  0.4465  1.4535
 1882SOL    HW212646   5.743   6.363   5.388 -0.5703 -0.5627 -0.3398
 1883SOL     OW12647   0.246   4.339   2.121 -0.8912 -0.5702 -0.3962
 1883SOL    HW112648   0.246   4.253   2.070  0.2343 -0.1183 -1.1742
 1883SOL    HW212649   0.187   4.330   2.201  1.5743 -3.1116  1.2455
 1884SOL     OW12650   0.356   4.886   1.392  0.3362  0.0923 -0.2944
 1884SOL    HW112651   0.295   4.942   1.448  0.8151 -1.3498  1.7350
 1884SOL    HW212652   0.302   4.819   1.341  0.0859 -0.0508  0.1593
 1885SOL     OW12653   5.710   1.986   1.210 -0.1430 -0.1989 -0.1568
 1885SOL    HW112654   5.741   1.934   1.290 -1.3945 -0.2848  0.2796
 1885SOL    HW212655   5.634   1.938   1.166  0.0090  0.2566 -0.9343
 1886SOL     OW12656   0.235   5.457   4.674 -1.0116 -0.7215 -0.0576
 1886SOL    HW112657   0.204   5.373   4.719 -0.6297 -1.6286 -1.4515
 1886SOL    HW212658   0.311   5.436   4.613 -0.3381  0.7989  0.2429
 1887SOL     OW12659   1.107   3.133   3.369  0.5405 -0.1118 -0.3137
 1887SOL    HW112660   1.129   3.230   3.367 -0.7883  0.1873 -2.4885
 1887SOL    HW212661   1.077   3.107   3.461  1.8044  1.3165  0.5163
 1888SOL     OW12662   6.157   6.316   6.139 -0.5192 -0.6830 -0.3390
 1888SOL    HW112663   6.207   6.381   6.082 -0.0191 -0.9638 -0.2175
 1888SOL    HW212664   6.221   6.250   6.179 -0.8513 -0.4545  0.5843
 1889SOL     OW12665   2.853   5.472   1.031  0.6759  0.0137  0.1707
 1889SOL    HW112666   2.891   5.553   0.987  2.5237 -0.0961  1.5265
 1889SOL    HW212667   2.833   5.493   1.127  0.6389 -0.9739  0.3787
 1890SOL     OW12668   0.076   2.112   5.261 -0.1914 -0.0459 -0.1898
 1890SOL    HW112669   0.129   2.191   5.291 -0.5520 -0.3780  1.4025
 1890SOL    HW212670   0.103   2.032   5.316 -1.0146 -0.6370 -0.6383
 1891SOL     OW12671   5.330   5.223   5.576 -0.1580 -0.3890 -0.6563
 1891SOL    HW112672   5.353   5.166   5.655 -1.7760 -2.4069 -1.6001
 1891SOL    HW212673   5.235   5.254   5.584  0.8612  2.7126  0.1263
 1892SOL     OW12674   3.579   2.861   6.820  0.6726  0.4732  0.0132
 1892SOL    HW112675   3.495   2.915   6.815  1.4639  1.6634 -0.7358
 1892SOL    HW212676   3.639   2.886   6.744  1.6360 -0.4880  0.4444
 1893SOL     OW12677   1.808   3.605   3.517  0.6626  0.0008  0.7313
 1893SOL    HW112678   1.752   3.525   3.495 -0.3354  0.5462  1.3020
 1893SOL    HW212679   1.754   3.671   3.569  1.7870  0.5885  1.1689
 1894SOL     OW12680   2.597   5.302   4.321  0.0750 -0.1576 -0.1733
 1894SOL    HW112681   2.577   5.340   4.412 -0.8344  0.2596 -0.5395
 1894SOL    HW212682   2.583   5.203   4.322 -0.0104 -0.1438  0.1186
 1895SOL     OW12683   4.980   7.245   1.443  0.4163 -0.0265 -0.3526
 1895SOL    HW112684   5.006   7.253   1.347  0.5822 -0.7016 -0.3652
 1895SOL    HW212685   4.903   7.181   1.451  1.3338 -1.0876  0.1204
 1896SOL     OW12686   2.269   0.079   1.156 -0.3679 -0.0783 -0.0835
 1896SOL    HW112687   2.284   0.174   1.181  1.2518 -0.7306  1.5939
 1896SOL    HW212688   2.348   0.046   1.103  0.0543 -1.0618  1.1447
 1897SOL     OW12689   0.845   6.065   0.356 -0.1083  0.8355 -0.0298
 1897SOL    HW112690   0.903   6.130   0.308 -0.2932 -0.2167 -1.7195
 1897SOL    HW212691   0.792   6.012   0.290  1.1624 -2.1094  1.2108
 1898SOL     OW12692   6.224   2.500   6.637 -0.8700 -0.3896 -0.2450
 1898SOL    HW112693   6.132   2.473   6.665 -0.8884  0.5960  0.6972
 1898SOL    HW212694   6.290   2.467   6.704 -0.5705 -0.8194 -0.7512
 1899SOL     OW12695   0.811   0.065   1.690 -0.0623 -0.0034 -0.0964
 1899SOL    HW112696   0.840  -0.018   1.737  0.9323  0.9992  1.0644
 1899SOL    HW212697   0.883   0.135   1.696 -1.2601  1.2717 -0.2694
 1900SOL     OW12698   5.385   3.808   0.061  0.5941  0.0245 -0.2493
 1900SOL    HW112699   5.308   3.784   0.002  1.7187 -1.9788 -0.9330
 1900SOL    HW212700   5.449   3.866   0.010 -0.0413  1.0142  0.0630
 1901SOL     OW12701   4.727   3.105   6.438  0.2161 -0.1494 -0.3435
 1901SOL    HW112702   4.738   3.025   6.497  0.1653 -0.0997 -0.2663
 1901SOL    HW212703   4.811   3.120   6.386  0.1538 -0.3717 -0.5088
 1902SOL     OW12704   6.277   0.521   4.590 -0.2343 -0.4178 -0.0453
 1902SOL    HW112705   6.259   0.614   4.558 -0.9791 -0.3109  0.6491
 1902SOL    HW212706   6.297   0.462   4.513  2.8238  0.8764 -0.3047
 1903SOL     OW12707   0.582   0.281   1.468 -0.1446  0.5429 -0.1955
 1903SOL    HW112708   0.494   0.322   1.490  0.4443  0.9872  1.4402
 1903SOL    HW212709   0.568   0.189   1.431 -1.3119  0.9086 -0.6744
 1904SOL     OW12710   2.945   3.587   0.934  0.6398 -0.3135  0.2886
 1904SOL    HW112711   2.990   3.658   0.880 -2.2535  2.7079  1.6286
 1904SOL    HW212712   2.857   3.565   0.893 -0.2244 -0.1977  2.0391
 1905SOL     OW12713   5.075   3.834   3.665 -0.4440  0.4152 -0.3318
 1905SOL    HW112714   5.106   3.772   3.737 -0.9069 -0.3315 -0.7668
 1905SOL    HW212715   5.151   3.855   3.603 -1.1940 -2.9074 -2.4922
 1906SOL     OW12716   3.437   2.988   4.980  0.5641  0.1406  0.4333
 1906SOL    HW112717   3.353   2.935   4.966 -0.2345  1.5491 -0.1341
 1906SOL    HW212718   3.515   2.925   4.990  0.0113 -1.0922 -2.6131
 1907SOL     OW12719   0.364   1.437   2.145  0.0815  0.2403  0.3665
 1907SOL    HW112720   0.447   1.393   2.112  0.1866  1.1662 -0.6158
 1907SOL    HW212721   0.297   1.367   2.169  1.0446 -0.5096  0.9256
 1908SOL     OW12722   2.448   3.061   5.859 -0.1751 -0.1839  0.3368
 1908SOL    HW112723   2.370   3.114   5.892 -0.4902 -0.5096  0.1236
 1908SOL    HW212724   2.530   3.084   5.912 -0.1355  1.0635 -0.2487
 1909SOL     OW12725   2.256   7.035   1.632  0.0044 -0.2911  0.4565
 1909SOL    HW112726   2.314   7.078   1.701  0.0887  0.1034  0.1438
 1909SOL    HW212727   2.179   7.096   1.612  1.4352  0.8499 -1.7834
 1910SOL     OW12728   3.435   6.148   0.556 -0.0137  0.5443 -0.5381
 1910SOL    HW112729   3.511   6.120   0.497  0.1471 -0.7034  0.2296
 1910SOL    HW212730   3.427   6.083   0.632 -1.7823  0.7188 -0.5599
 1911SOL     OW12731   7.095   2.768   5.834 -0.5551  0.0460  0.2681
 1911SOL    HW112732   7.076   2.672   5.811 -2.7763  0.0402  1.9191
 1911SOL    HW212733   7.182   2.775   5.881 -0.4710 -1.1891  0.2989
 1912SOL     OW12734   0.210   4.120   6.177 -0.3379 -0.1267 -0.1699
 1912SOL    HW112735   0.177   4.083   6.264  1.2033 -1.2432 -0.0395
 1912SOL    HW212736   0.275   4.055   6.136  0.2952  1.1905 -1.2832
 1913SOL     OW12737   5.089   5.181   6.505 -0.2373  0.0562  0.4401
 1913SOL    HW112738   5.125   5.248   6.440 -0.2958  0.5082  0.8702
 1913SOL    HW212739   5.164   5.127   6.542 -0.1582  0.0830  0.3201
 1914SOL     OW12740   3.673   3.584   2.055 -0.0330  0.5929 -0.0514
 1914SOL    HW112741   3.659   3.683   2.055 -0.7248  0.5080 -0.6589
 1914SOL    HW212742   3.585   3.538   2.040  0.0550 -0.1541  1.6171
 1915SOL     OW12743   0.168   2.353   5.382  0.5210 -0.4050 -0.4864
 1915SOL    HW112744   0.182   2.338   5.479  0.6494 -0.4707 -0.5150
 1915SOL    HW212745   0.170   2.451   5.363  0.8587 -0.4103 -0.4776
 1916SOL     OW12746   1.107   2.274   6.467 -0.2189  0.1686  0.0711
 1916SOL    HW112747   1.169   2.254   6.543 -1.0792 -0.1198  0.6984
 1916SOL    HW212748   1.122   2.208   6.393  0.3008  0.1725  0.1710
 1917SOL     OW12749   5.429   6.986   3.834  0.7684 -0.0967  0.7027
 1917SOL    HW112750   5.520   6.966   3.797  0.8682  0.2299  0.7681
 1917SOL    HW212751   5.390   6.903   3.873 -0.2387 -0.9918 -2.0799
 1918SOL     OW12752   4.327   0.994   0.697 -0.4448 -0.0186 -0.3234
 1918SOL    HW112753   4.378   1.046   0.628 -1.4443 -0.4932 -1.4382
 1918SOL    HW212754   4.270   1.056   0.751  0.1181  0.3170 -0.1119
 1919SOL     OW12755   2.128   1.125   2.120  0.8375 -0.2117  0.1198
 1919SOL    HW112756   2.202   1.188   2.146  2.3491 -2.0224  0.3506
 1919SOL    HW212757   2.082   1.159   2.038  2.1562  0.7806 -0.2269
 1920SOL     OW12758   4.728   6.653   4.803 -0.4509 -0.2394  0.4984
 1920SOL    HW112759   4.781   6.569   4.809 -0.9880 -0.7011 -0.8913
 1920SOL    HW212760   4.789   6.731   4.789 -0.1737 -1.0143 -3.2792
 1921SOL     OW12761   5.960   3.255   2.001 -0.0695 -0.3582 -0.4343
 1921SOL    HW112762   5.925   3.328   2.059 -1.3281  0.7758 -2.5570
 1921SOL    HW212763   6.058   3.269   1.986  1.0948 -2.6396  4.1949
 1922SOL     OW12764   5.504   2.723   1.345 -0.2021  0.3191  0.1509
 1922SOL    HW112765   5.444   2.706   1.424 -1.2224 -1.7297 -0.9969
 1922SOL    HW212766   5.599   2.708   1.372 -0.5932 -1.0552  0.8288
 1923SOL     OW12767   7.125   3.507   4.386 -0.1465  0.0825  0.7684
 1923SOL    HW112768   7.080   3.427   4.348 -1.1350  1.6958 -1.5722
 1923SOL    HW212769   7.174   3.556   4.313  2.3496  0.3615  2.5843
 1924SOL     OW12770   4.239   1.809   1.765  0.3717  0.0114 -0.3211
 1924SOL    HW112771   4.182   1.765   1.834  1.4464  0.3429  0.7895
 1924SOL    HW212772   4.182   1.868   1.708 -0.6995 -1.0741 -0.4126
 1925SOL     OW12773   3.387   0.009   4.568 -0.3595 -0.3531 -0.1978
 1925SOL    HW112774   3.389  -0.070   4.506 -0.6625 -0.7945  0.3492
 1925SOL    HW212775   3.467   0.008   4.627  0.6216  0.8058 -1.4759
 1926SOL     OW12776   6.817   2.129   1.144 -0.0334  0.2033 -0.2878
 1926SOL    HW112777   6.761   2.182   1.207  2.1009  0.1157  1.7936
 1926SOL    HW212778   6.806   2.163   1.051 -2.8295  0.7136  0.1956
 1927SOL     OW12779   6.419   4.096   6.470 -0.2497 -0.0709  0.6256
 1927SOL    HW112780   6.472   4.180   6.477 -0.8346  0.2674  1.0503
 1927SOL    HW212781   6.478   4.022   6.439  0.1097  0.6544 -0.4536
 1928SOL     OW12782   6.552   6.901   3.208 -0.1709  0.0191 -0.0402
 1928SOL    HW112783   6.640   6.887   3.252  0.4520 -1.7022 -1.7595
 1928SOL    HW212784   6.484   6.839   3.249 -0.7491  1.7817  1.7052
 1929SOL     OW12785   5.618   5.482   5.033 -0.3596 -0.5178 -0.2093
 1929SOL    HW112786   5.520   5.502   5.029 -0.8828 -3.0871 -1.1899
 1929SOL    HW212787   5.670   5.565   5.014 -2.3654  0.4555 -1.6219
 1930SOL     OW12788   6.091   6.636   6.632 -0.8575 -0.2769  0.1394
 1930SOL    HW112789   6.156   6.562   6.617 -2.1305 -1.1826 -1.1345
 1930SOL    HW212790   6.135   6.711   6.681  0.8615 -1.2609  0.1225
 1931SOL     OW12791   5.281   1.174   2.435 -0.0413 -0.1355  0.0226
 1931SOL    HW112792   5.314   1.241   2.369  1.0321 -0.1928  0.4955
 1931SOL    HW212793   5.335   1.180   2.518 -1.4413 -0.0136  0.9349
 1932SOL     OW12794   0.876   4.217   2.131 -0.1929 -0.3057 -0.0120
 1932SOL    HW112795   0.878   4.271   2.215 -0.2095 -0.5695  0.1581
 1932SOL    HW212796   0.968   4.187   2.108 -0.2426 -0.5624  0.1244
 1933SOL     OW12797   2.163   4.174   3.223  0.1687 -0.1355 -0.7668
 1933SOL    HW112798   2.217   4.155   3.140  1.7606  0.3875  0.1371
 1933SOL    HW212799   2.223   4.177   3.302 -1.2625  0.0346  0.3355
 1934SOL     OW12800   6.414   5.049   0.555  0.0962 -0.2921 -0.0607
 1934SOL    HW112801   6.397   5.012   0.463  1.4325  0.7540 -0.7512
 1934SOL    HW212802   6.506   5.087   0.558 -1.0492  2.4776  0.8232
 1935SOL     OW12803   5.906   1.837   1.294 -0.2233 -0.0346 -0.4130
 1935SOL    HW112804   5.883   1.748   1.255  0.3966  0.4387 -1.9071
 1935SOL    HW212805   5.973   1.826   1.367  1.9104 -0.5726 -2.3973
 1936SOL     OW12806   6.294   2.864   0.465 -0.1516 -0.4050 -0.2333
 1936SOL    HW112807   6.246   2.861   0.553  0.4502 -3.0135  0.0307
 1936SOL    HW212808   6.376   2.808   0.470 -1.3497 -2.5394 -3.1659
 1937SOL     OW12809   3.435   6.911   3.643  0.1716  0.0581 -0.5020
 1937SOL    HW112810   3.472   6.822   3.616  0.4582 -0.1146  0.4581
 1937SOL    HW212811   3.493   6.984   3.606  0.5738 -0.1771 -0.3368
 1938SOL     OW12812   3.294   2.939   6.313  0.1002 -0.4420 -0.2732
 1938SOL    HW112813   3.372   2.951   6.252  0.7610 -0.1328  0.6301
 1938SOL    HW212814   3.283   2.842   6.335 -0.7956 -0.6901 -1.7273
 1939SOL     OW12815   1.647   4.782   5.652  0.1022  0.4400 -0.3842
 1939SOL    HW112816   1.558   4.768   5.609  0.4405 -0.0076 -0.9348
 1939SOL    HW212817   1.670   4.880   5.651 -1.1929  0.7901  1.3798
 1940SOL     OW12818   3.568   5.825   2.780  0.0551  0.1381  0.1425
 1940SOL    HW112819   3.613   5.794   2.696  1.0122  2.0299 -0.0955
 1940SOL    HW212820   3.627   5.891   2.826 -1.2050  0.3990  1.4145
 1941SOL     OW12821   3.110   3.519   0.562 -0.4525 -0.3305  0.1486
 1941SOL    HW112822   3.144   3.576   0.488  0.5177 -1.7660 -0.5394
 1941SOL    HW212823   3.172   3.525   0.640 -1.4144  1.0954  0.7971
 1942SOL     OW12824   0.791   5.572   4.451 -0.4488 -1.0389  0.3481
 1942SOL    HW112825   0.851   5.646   4.482 -0.3468 -0.5131 -1.0888
 1942SOL    HW212826   0.699   5.587   4.487  0.0071 -1.2530  1.6449
 1943SOL     OW12827   1.748   4.744   0.455 -0.8046  0.1103  0.5458
 1943SOL    HW112828   1.805   4.826   0.453  0.1296 -0.5126  1.1487
 1943SOL    HW212829   1.727   4.720   0.550  0.9216 -1.6822  0.5191
 1944SOL     OW12830   6.058   4.497   0.826  0.4250 -0.2101 -0.0015
 1944SOL    HW112831   6.041   4.399   0.827 -2.2599  0.2145  0.5566
 1944SOL    HW212832   5.972   4.546   0.841  1.6070  2.2414 -0.9119
 1945SOL     OW12833   5.864   3.088   1.581  0.3216 -0.2155  0.0634
 1945SOL    HW112834   5.922   3.033   1.641 -1.1804 -1.1875  0.6498
 1945SOL    HW212835   5.810   3.028   1.523  0.4163  0.6968 -0.9801
 1946SOL     OW12836   3.633   3.838   2.083 -0.2323 -0.2857  0.2771
 1946SOL    HW112837   3.699   3.907   2.055  1.2596 -1.0221  1.8640
 1946SOL    HW212838   3.592   3.864   2.171  1.8732 -2.3828  1.9290
 1947SOL     OW12839   1.729   2.977   2.196  0.1919  0.2502  0.2749
 1947SOL    HW112840   1.781   3.047   2.147  0.5556  1.2913  2.1137
 1947SOL    HW212841   1.664   3.021   2.258  0.0141 -1.0348  1.0104
 1948SOL     OW12842   4.707   3.391   6.247 -0.3974  0.5712 -0.0212
 1948SOL    HW112843   4.718   3.399   6.148 -3.1883 -1.1484 -0.5449
 1948SOL    HW212844   4.628   3.445   6.276  1.2444  2.2028  1.5128
 1949SOL     OW12845   5.708   4.391   7.293  0.2745 -0.2023 -0.0748
 1949SOL    HW112846   5.689   4.479   7.335  1.9257  0.0360  0.1934
 1949SOL    HW212847   5.742   4.327   7.362  1.5095 -0.2785 -0.7503
 1950SOL     OW12848   4.155   5.447   2.175  0.7598 -0.3898  0.0935
 1950SOL    HW112849   4.169   5.348   2.170 -0.5145 -0.5678 -0.0141
 1950SOL    HW212850   4.069   5.471   2.132  1.5108  0.8913 -0.7251
 1951SOL     OW12851   5.987   0.584   1.592 -0.1507  0.2227 -0.4536
 1951SOL    HW112852   6.013   0.490   1.572  0.5710  0.7423 -1.9796
 1951SOL    HW212853   5.951   0.589   1.685 -0.6023 -1.6400 -0.5084
 1952SOL     OW12854   7.019   3.256   0.213 -0.0652  0.5992  0.1216
 1952SOL    HW112855   7.052   3.289   0.302 -0.6521 -1.1901  1.0347
 1952SOL    HW212856   6.925   3.286   0.199  0.6318  2.4869 -0.7829
 1953SOL     OW12857   3.560   0.756   6.593  0.0906 -0.3120  0.3753
 1953SOL    HW112858   3.649   0.719   6.565  0.3950  1.3343 -0.8898
 1953SOL    HW212859   3.546   0.740   6.691  1.7668 -0.5806  0.5771
 1954SOL     OW12860   5.965   4.155   3.175  0.0129  0.1166 -0.6862
 1954SOL    HW112861   5.884   4.121   3.223  0.7412  0.3099  0.6903
 1954SOL    HW212862   5.955   4.254   3.160 -0.4823 -0.0487 -1.4805
 1955SOL     OW12863   1.395   4.581   0.529 -1.2559 -0.3812  0.2453
 1955SOL    HW112864   1.391   4.617   0.436 -0.5372  1.8249  1.0544
 1955SOL    HW212865   1.336   4.635   0.589 -2.0273 -2.0365  1.0156
 1956SOL     OW12866   6.634   2.978   6.640  0.2858  0.3825  0.2689
 1956SOL    HW112867   6.706   3.044   6.620  0.6172 -0.3501 -0.9830
 1956SOL    HW212868   6.547   3.013   6.607  0.6261 -0.2579 -1.3096
 1957SOL     OW12869   4.639   3.090   3.533  0.0780 -0.1586 -0.2045
 1957SOL    HW112870   4.617   3.187   3.542 -0.2887 -0.1310 -1.3740
 1957SOL    HW212871   4.738   3.077   3.535  0.0849  0.0123  2.1315
 1958SOL     OW12872   5.852   1.025   6.706  0.3638  0.3305  0.3829
 1958SOL    HW112873   5.830   1.019   6.608 -1.2223 -1.5808  0.8227
 1958SOL    HW212874   5.833   1.118   6.738  2.6338  1.5005 -1.4939
 1959SOL     OW12875   2.341   6.484   2.377  0.0503 -0.1420  0.5306
 1959SOL    HW112876   2.333   6.386   2.392  0.5686 -0.1370  0.8278
 1959SOL    HW212877   2.431   6.505   2.338  0.2508  0.3088  1.2231
 1960SOL     OW12878   5.866   3.811   6.748  0.1109 -0.2432  0.1582
 1960SOL    HW112879   5.914   3.884   6.798 -0.3461  0.0918  0.1137
 1960SOL    HW212880   5.931   3.742   6.718  0.6074  0.3622 -0.1621
 1961SOL     OW12881   5.225   5.427   2.818 -0.3302 -0.3553 -0.0378
 1961SOL    HW112882   5.250   5.414   2.913  0.0205 -2.0192 -0.3398
 1961SOL    HW212883   5.172   5.348   2.786 -1.6202  0.7963 -0.8422
 1962SOL     OW12884   3.508   1.712   1.332  0.2632  0.3193 -0.1578
 1962SOL    HW112885   3.477   1.766   1.253 -0.6149  2.6692  1.7341
 1962SOL    HW212886   3.443   1.723   1.407  1.5329 -1.1961  1.2008
 1963SOL     OW12887   3.506   3.035   4.069 -0.4285  0.3002  0.5418
 1963SOL    HW112888   3.456   3.109   4.025  0.0433 -0.2879 -0.9957
 1963SOL    HW212889   3.441   2.970   4.108 -0.8430  0.5503  0.2694
 1964SOL     OW12890   4.574   0.010   6.233 -0.0049 -0.0057  0.2139
 1964SOL    HW112891   4.658   0.046   6.273 -0.6161  0.4447  1.0954
 1964SOL    HW212892   4.498   0.070   6.255 -0.4212  0.0449 -1.3095
 1965SOL     OW12893   0.063   2.966   3.470  0.0128  0.0820 -0.9277
 1965SOL    HW112894   0.157   2.996   3.484 -0.4636  0.3802  1.8820
 1965SOL    HW212895   0.022   3.018   3.395  2.2195 -0.4213 -2.5320
 1966SOL     OW12896   6.214   4.998   4.284 -0.0995 -0.1882  0.1549
 1966SOL    HW112897   6.216   5.098   4.275 -0.5592 -0.2739 -1.0696
 1966SOL    HW212898   6.307   4.963   4.289  0.0618  0.3080  0.6805
 1967SOL     OW12899   2.712   4.088   6.932  0.4119  0.2601  0.7948
 1967SOL    HW112900   2.649   4.074   6.856  1.1121 -2.0361  0.6127
 1967SOL    HW212901   2.693   4.177   6.975 -1.9777  0.2458 -0.1521
 1968SOL     OW12902   3.937   6.798   4.446  0.6593  0.2861 -0.0857
 1968SOL    HW112903   3.898   6.863   4.379  0.7884 -0.5249 -0.9605
 1968SOL    HW212904   4.036   6.812   4.453  0.3885  1.6244  1.3381
 1969SOL     OW12905   3.785   1.054   0.242 -0.6815  0.3235  0.5035
 1969SOL    HW112906   3.819   1.119   0.173 -1.7834  0.9284  0.5043
 1969SOL    HW212907   3.820   0.963   0.223 -0.6016  0.5782 -0.5909
 1970SOL     OW12908   2.516   3.133   2.062 -0.0972 -0.3067  0.0229
 1970SOL    HW112909   2.603   3.105   2.023 -0.4790 -1.4252 -0.0332
 1970SOL    HW212910   2.449   3.059   2.051 -0.8095  0.2162  0.8307
 1971SOL     OW12911   0.931   4.287   3.419 -0.1834 -0.0945 -0.1064
 1971SOL    HW112912   1.007   4.250   3.364 -0.1060  0.1050 -0.1336
 1971SOL    HW212913   0.853   4.225   3.413  0.1542 -0.5687  0.3453
 1972SOL     OW12914   6.898   3.064   5.434 -0.7854 -0.0262 -0.0384
 1972SOL    HW112915   6.935   3.011   5.357 -0.4352 -0.5222  0.4656
 1972SOL    HW212916   6.804   3.090   5.414 -0.9798 -0.8870 -0.2782
 1973SOL     OW12917   4.626   1.452   2.447  0.8449 -0.4212 -0.0885
 1973SOL    HW112918   4.674   1.392   2.510 -0.5393 -0.5731  0.8414
 1973SOL    HW212919   4.576   1.397   2.380  0.5521 -0.3002  0.0277
 1974SOL     OW12920   3.421   6.347   5.880 -0.1483 -0.1664  0.0136
 1974SOL    HW112921   3.505   6.316   5.835 -0.2859  0.5167 -0.7183
 1974SOL    HW212922   3.396   6.282   5.953  0.7301 -0.6372 -0.1009
 1975SOL     OW12923   1.924   5.664   5.362  0.4426 -0.0169 -0.6065
 1975SOL    HW112924   1.963   5.574   5.346 -1.2784 -0.7097 -0.9774
 1975SOL    HW212925   1.962   5.702   5.446  0.0213 -1.7493  0.3915
 1976SOL     OW12926   2.645   3.764   2.876  0.2682 -0.3288  0.2264
 1976SOL    HW112927   2.566   3.703   2.879  0.3989 -0.4753  0.9425
 1976SOL    HW212928   2.726   3.711   2.848  0.4282 -0.5498  1.0742
 1977SOL     OW12929   3.887   6.029   2.289  0.8421 -0.4126  0.2810
 1977SOL    HW112930   3.935   6.109   2.254 -0.3184  0.4906  0.7098
 1977SOL    HW212931   3.789   6.040   2.274  0.5186 -1.0104  1.7867
 1978SOL     OW12932   4.448   6.415   0.869 -0.3138  0.1998  0.7750
 1978SOL    HW112933   4.469   6.485   0.938 -2.3130  0.3310  1.2889
 1978SOL    HW212934   4.382   6.350   0.907 -3.0740  1.4576 -1.6838
 1979SOL     OW12935   0.007   1.153   0.911  0.0649  0.0056  0.2189
 1979SOL    HW112936   0.021   1.222   0.983 -0.4216  1.6764 -1.2652
 1979SOL    HW212937  -0.055   1.189   0.842  1.4223 -1.1682 -1.6395
 1980SOL     OW12938   6.787   2.378   2.768  0.1256  0.1879 -0.3176
 1980SOL    HW112939   6.810   2.296   2.715 -0.8737  0.2817 -0.9144
 1980SOL    HW212940   6.712   2.426   2.723 -1.0874 -0.0123  1.4778
 1981SOL     OW12941   7.062   4.877   3.476 -0.3392  0.3123 -0.4085
 1981SOL    HW112942   7.091   4.861   3.570  1.4497  0.4435 -0.9141
 1981SOL    HW212943   7.124   4.828   3.413 -0.9297  1.0026 -1.5456
 1982SOL     OW12944   1.516   3.214   3.847  0.0575  0.2597 -0.1824
 1982SOL    HW112945   1.426   3.172   3.835  0.0557  0.4650 -0.9199
 1982SOL    HW212946   1.585   3.159   3.800  0.2537  0.3318  0.0240
 1983SOL     OW12947   5.075   5.261   5.479  0.0438  0.1448 -0.4067
 1983SOL    HW112948   5.073   5.161   5.481  1.4792  0.1098 -0.2838
 1983SOL    HW212949   4.990   5.296   5.518  0.9537 -1.0180  2.8155
 1984SOL     OW12950   1.181   1.816   3.402 -0.0115 -0.2169  0.9665
 1984SOL    HW112951   1.101   1.769   3.365  1.3524 -1.4106 -0.5359
 1984SOL    HW212952   1.232   1.753   3.462  1.4493 -0.4711 -0.5111
 1985SOL     OW12953   6.223   2.726   2.140  0.1988  0.2435 -0.1610
 1985SOL    HW112954   6.191   2.762   2.053 -2.7971 -1.1828  0.2939
 1985SOL    HW212955   6.186   2.781   2.215 -0.3850 -0.8203  0.3414
 1986SOL     OW12956   1.567   2.148   4.187 -0.8852  0.3262 -0.2782
 1986SOL    HW112957   1.478   2.103   4.191  0.0820 -1.5759  0.9205
 1986SOL    HW212958   1.639   2.079   4.196  0.6585  2.2067  2.6439
 1987SOL     OW12959   3.218   2.624   0.914 -0.5183 -0.2392 -0.3009
 1987SOL    HW112960   3.312   2.598   0.890 -1.1162 -0.5595 -2.3667
 1987SOL    HW212961   3.204   2.720   0.890 -1.4675 -0.8682 -2.3069
 1988SOL     OW12962   4.181   0.738   5.757  0.0611 -0.5359  0.0769
 1988SOL    HW112963   4.272   0.776   5.779  0.0010 -0.0030 -0.5844
 1988SOL    HW212964   4.114   0.777   5.820  0.0154  0.3943 -0.5374
 1989SOL     OW12965   4.121   1.648   1.161 -0.2596 -0.5788  0.8180
 1989SOL    HW112966   4.158   1.559   1.133  1.6315  0.2976  0.5020
 1989SOL    HW212967   4.177   1.687   1.233 -0.4866  0.8260  0.2595
 1990SOL     OW12968   3.994   5.977   3.407  0.0795  0.3888  0.6064
 1990SOL    HW112969   3.984   5.985   3.506 -0.5574 -0.3985  0.6109
 1990SOL    HW212970   4.089   5.954   3.385  0.6254  2.2473  0.9146
 1991SOL     OW12971   1.223   5.928   6.481  0.0552 -0.2760  0.6014
 1991SOL    HW112972   1.228   5.836   6.519  0.7666 -0.1634  0.8040
 1991SOL    HW212973   1.147   5.978   6.522  0.7610 -0.1839  1.8445
 1992SOL     OW12974   5.808   1.761   5.272  0.1294 -0.2343 -0.1761
 1992SOL    HW112975   5.882   1.767   5.339 -0.6434 -0.7906  0.7505
 1992SOL    HW212976   5.805   1.668   5.234 -1.4436 -0.8635  1.4021
 1993SOL     OW12977   6.346   0.723   1.616 -0.2803  0.8660 -0.7852
 1993SOL    HW112978   6.364   0.779   1.535  0.2058 -0.0202 -1.3110
 1993SOL    HW212979   6.305   0.779   1.687 -0.5626  1.6993 -1.5888
 1994SOL     OW12980   2.026   4.600   7.348  0.1196  0.4124 -0.1098
 1994SOL    HW112981   1.971   4.643   7.419  0.4765 -0.7602  0.8768
 1994SOL    HW212982   1.984   4.617   7.259 -0.9115  0.9662  0.4725
 1995SOL     OW12983   2.756   0.823   2.562 -0.2401 -0.3153 -0.3906
 1995SOL    HW112984   2.697   0.879   2.621  0.5260 -0.0135  0.1044
 1995SOL    HW212985   2.749   0.855   2.468  1.1480  1.4706  0.0729
 1996SOL     OW12986   5.135   6.087   4.096  0.5817 -0.0647  0.3921
 1996SOL    HW112987   5.186   6.157   4.146  0.4083  0.0037  0.4718
 1996SOL    HW212988   5.175   6.076   4.004  1.8161 -1.1984  1.0374
 1997SOL     OW12989   2.080   1.813   1.229  0.4712  0.0730 -0.0387
 1997SOL    HW112990   2.076   1.718   1.198  2.2506 -0.2949  0.7880
 1997SOL    HW212991   2.175   1.843   1.230 -0.1411  2.0945 -0.9268
 1998SOL     OW12992   2.982   3.701   6.824 -0.5154  0.4144  0.0991
 1998SOL    HW112993   2.985   3.659   6.734 -1.3213 -0.8501  0.6403
 1998SOL    HW212994   2.899   3.757   6.833 -0.3482  0.6793 -0.0031
 1999SOL     OW12995   6.592   4.495   1.566 -0.1683 -0.6765 -0.2003
 1999SOL    HW112996   6.671   4.556   1.557  0.2735 -1.1773  0.3145
 1999SOL    HW212997   6.513   4.538   1.523  0.1793  0.1941  0.0165
 2000SOL     OW12998   5.414   7.073   4.448  0.9422 -0.6164  0.3561
 2000SOL    HW112999   5.368   7.160   4.464 -0.9096 -1.8053  1.6072
 2000SOL    HW213000   5.459   7.075   4.359 -1.4606  0.6003 -0.8680
 2001SOL     OW13001   1.900   1.225   3.446 -0.0634 -0.3289 -0.3199
 2001SOL    HW113002   1.851   1.139   3.458  1.5959 -1.2896 -0.1706
 2001SOL    HW213003   1.998   1.206   3.437  0.4982  1.6531  1.2855
 2002SOL     OW13004   0.487   4.232   4.239  0.2453 -0.5317 -0.1938
 2002SOL    HW113005   0.403   4.222   4.291  0.3306  2.1089  0.4685
 2002SOL    HW213006   0.564   4.244   4.301  0.9777 -1.7434 -0.8332
 2003SOL     OW13007   6.085   6.302   6.813 -0.2654 -0.3546 -0.1209
 2003SOL    HW113008   6.078   6.352   6.726 -1.4657 -1.7944 -0.8687
 2003SOL    HW213009   6.031   6.219   6.808  0.7094 -1.1147  1.5708
 2004SOL     OW13010   3.177   7.105   5.044 -0.3915  0.3436 -0.0804
 2004SOL    HW113011   3.174   7.010   5.074  0.8870  0.6587  1.0900
 2004SOL    HW213012   3.266   7.124   5.001 -0.2144  1.2921  0.6788
 2005SOL     OW13013   4.622   4.318   3.494 -0.0667  0.7781 -0.3856
 2005SOL    HW113014   4.583   4.301   3.584  0.7579 -2.2399 -0.5183
 2005SOL    HW213015   4.550   4.352   3.433 -1.3267  0.0890  0.6767
 2006SOL     OW13016   6.205   0.333   4.812  0.1566  0.0864  0.6535
 2006SOL    HW113017   6.246   0.344   4.903 -0.4866  0.6350  0.8797
 2006SOL    HW213018   6.239   0.404   4.751 -1.4232  1.3501  1.1970
 2007SOL     OW13019   7.131   2.913   4.559  0.0463  0.4996 -0.4999
 2007SOL    HW113020   7.171   2.825   4.582 -0.7120  0.0872 -0.7346
 2007SOL    HW213021   7.031   2.908   4.567  0.0047  1.3840 -0.3408
 2008SOL     OW13022   0.449   3.236   6.110 -0.0394 -0.7367  0.9116
 2008SOL    HW113023   0.511   3.263   6.037 -0.5164 -1.6169  0.1805
 2008SOL    HW213024   0.362   3.208   6.072 -0.6572 -0.2009  1.8914
 2009SOL     OW13025   4.830   4.296   5.924 -0.0948 -0.0711 -0.2000
 2009SOL    HW113026   4.832   4.243   5.839 -3.2983  0.2172 -0.5235
 2009SOL    HW213027   4.785   4.242   5.996  0.1032  0.7402  0.5446
 2010SOL     OW13028   5.258   5.657   0.769  0.5022  0.0280  0.0951
 2010SOL    HW113029   5.310   5.586   0.817 -0.7723 -0.1866  1.2031
 2010SOL    HW213030   5.206   5.616   0.694 -0.3066 -0.2383  0.7931
 2011SOL     OW13031   3.955   2.874   1.936 -0.2822 -0.1515  0.2086
 2011SOL    HW113032   4.020   2.813   1.890  1.0282 -0.8408  2.8657
 2011SOL    HW213033   3.885   2.819   1.982  0.8108  0.2725  2.4860
 2012SOL     OW13034   5.753   2.298   4.775  0.5184  0.3518 -0.6397
 2012SOL    HW113035   5.791   2.205   4.779 -0.7139 -0.2278 -1.9331
 2012SOL    HW213036   5.653   2.293   4.774  0.4060  1.7755  0.8589
 2013SOL     OW13037   3.133   2.445   1.934 -0.1621  0.0074  0.0068
 2013SOL    HW113038   3.170   2.509   1.866 -0.2087  0.9627  0.8703
 2013SOL    HW213039   3.135   2.488   2.024  0.0903 -1.3295  0.6437
 2014SOL     OW13040   2.112   1.934   0.519  0.0780 -0.0489 -0.2939
 2014SOL    HW113041   2.171   1.857   0.545 -0.9661  0.1328  2.7964
 2014SOL    HW213042   2.102   1.996   0.597 -2.5789  0.9611 -1.3838
 2015SOL     OW13043   0.275   2.194   0.239  0.4644 -0.0838 -0.0916
 2015SOL    HW113044   0.352   2.161   0.294  0.8003  2.3012  0.8996
 2015SOL    HW213045   0.310   2.250   0.163 -0.1011 -1.9748 -1.7962
 2016SOL     OW13046   4.684   4.296   4.419  0.8006 -0.0946 -0.0709
 2016SOL    HW113047   4.681   4.381   4.471  0.7552  0.8899 -1.6778
 2016SOL    HW213048   4.779   4.269   4.405  0.8060 -0.6669  0.9898
 2017SOL     OW13049   3.278   3.935   4.647 -0.7691  0.3959 -0.2456
 2017SOL    HW113050   3.271   3.836   4.639  2.2695  0.1437 -0.3070
 2017SOL    HW213051   3.237   3.964   4.734 -0.1650 -1.1201  0.5675
 2018SOL     OW13052   2.433   1.301   0.405 -0.3224 -0.2205  0.1263
 2018SOL    HW113053   2.467   1.274   0.315  2.4535  0.5776  0.8807
 2018SOL    HW213054   2.470   1.239   0.475 -0.2821  0.7638  0.9973
 2019SOL     OW13055   6.477   2.368   3.847 -0.3596 -0.2552 -0.1909
 2019SOL    HW113056   6.508   2.462   3.836 -0.7735 -0.0112  0.6627
 2019SOL    HW213057   6.555   2.308   3.862 -0.1377  0.0224 -0.2398
 2020SOL     OW13058   3.935   1.069   5.285 -0.0195 -0.2208  0.0208
 2020SOL    HW113059   3.938   1.024   5.375  1.3242  2.8754  1.6320
 2020SOL    HW213060   4.028   1.098   5.260 -0.4364 -0.7742 -2.2637
 2021SOL     OW13061   3.284   3.336   1.122  0.3208 -0.3512 -0.6971
 2021SOL    HW113062   3.250   3.247   1.090 -0.9782 -0.3136  0.5005
 2021SOL    HW213063   3.206   3.397   1.138  0.7281 -0.8680  3.9078
 2022SOL     OW13064   3.478   3.332   0.556 -0.5196 -0.0707 -0.1227
 2022SOL    HW113065   3.501   3.275   0.477  0.3777  0.3745 -0.1827
 2022SOL    HW213066   3.517   3.292   0.639 -0.9994 -0.2428  0.0242
 2023SOL     OW13067   1.514   0.829   0.014  0.6011 -0.1079 -0.1241
 2023SOL    HW113068   1.448   0.782   0.074  1.8839 -1.3356  0.3654
 2023SOL    HW213069   1.548   0.911   0.060  1.4212 -0.9316  0.7687
 2024SOL     OW13070   4.316   3.404   2.003  0.4481  0.4061 -0.4656
 2024SOL    HW113071   4.256   3.402   2.082  0.0621 -0.1336 -0.7709
 2024SOL    HW213072   4.403   3.362   2.025  0.4076  0.4279 -0.2702
 2025SOL     OW13073   1.846   2.206   4.413  0.2876 -0.4747 -0.1588
 2025SOL    HW113074   1.773   2.206   4.482  0.7134 -1.9694  0.3038
 2025SOL    HW213075   1.934   2.192   4.457  0.6774 -0.4037 -0.9071
 2026SOL     OW13076   3.847   3.390   0.324  0.5233  0.0899  0.0650
 2026SOL    HW113077   3.882   3.319   0.263 -1.2309 -1.7083  1.0901
 2026SOL    HW213078   3.794   3.456   0.272 -1.5355 -1.8038 -0.3130
 2027SOL     OW13079   7.217   5.285   0.699  0.3001  0.0822  0.0287
 2027SOL    HW113080   7.295   5.228   0.725 -0.8275 -0.3979  2.5518
 2027SOL    HW213081   7.220   5.372   0.748 -0.4220  0.3083 -0.3096
 2028SOL     OW13082   5.520   4.180   1.930  0.1094  0.0229 -0.0035
 2028SOL    HW113083   5.559   4.091   1.905 -1.6646 -0.5771 -0.6618
 2028SOL    HW213084   5.458   4.168   2.008  1.9770  1.1442  1.7339
 2029SOL     OW13085   3.981   6.512   6.553  0.4798 -0.0360  0.2262
 2029SOL    HW113086   3.997   6.459   6.470  0.2672  0.4909 -0.1526
 2029SOL    HW213087   3.885   6.501   6.581  0.5580 -0.2344  0.4203
 2030SOL     OW13088   6.091   4.066   3.397  0.3715 -0.0395 -0.2364
 2030SOL    HW113089   6.057   4.112   3.314  1.7324  1.9781  0.3047
 2030SOL    HW213090   6.088   3.967   3.383  0.4977  0.2667 -2.6733
 2031SOL     OW13091   6.729   4.977   2.854 -0.2089 -0.1581  0.5543
 2031SOL    HW113092   6.752   4.901   2.916  1.3518 -0.9269 -0.9173
 2031SOL    HW213093   6.647   4.953   2.803  1.0665 -1.5505 -0.9406
 2032SOL     OW13094   6.316   0.452   6.172 -0.0001 -0.0844 -0.0450
 2032SOL    HW113095   6.370   0.369   6.188  0.5962  0.2725 -0.1547
 2032SOL    HW213096   6.242   0.457   6.239  0.0976 -0.5883  0.1064
 2033SOL     OW13097   4.125   7.131   5.454 -0.0069  0.1331 -0.1289
 2033SOL    HW113098   4.168   7.109   5.366 -0.1228 -2.0215  0.3354
 2033SOL    HW213099   4.180   7.094   5.528 -1.9536 -1.5283  0.5319
 2034SOL     OW13100   3.117   0.815   6.325 -0.5027 -0.5274 -0.0464
 2034SOL    HW113101   3.162   0.902   6.308  0.8157 -1.3724 -0.9644
 2034SOL    HW213102   3.174   0.758   6.384 -0.3061 -1.6142 -1.2377
 2035SOL     OW13103   0.034   2.963   1.524  0.2913  0.3646 -0.0641
 2035SOL    HW113104  -0.038   2.943   1.591  0.3127  1.0147  0.1518
 2035SOL    HW213105   0.064   3.058   1.534 -0.1673  0.6690 -1.4246
 2036SOL     OW13106   4.241   5.681   4.808  0.2677 -0.1248 -0.4461
 2036SOL    HW113107   4.226   5.587   4.777  0.5437 -0.1946 -0.3692
 2036SOL    HW213108   4.246   5.682   4.908  1.6899 -0.2370 -0.5059
 2037SOL     OW13109   1.666   6.948   0.348  0.0294  0.1604  0.4107
 2037SOL    HW113110   1.727   6.921   0.274  1.0897  0.6089  1.1060
 2037SOL    HW213111   1.668   6.879   0.421 -0.4824  0.0593  0.3366
 2038SOL     OW13112   1.007   3.971   1.372 -0.2381  0.1844  0.4810
 2038SOL    HW113113   1.086   3.951   1.314  1.9515 -0.0626  3.3856
 2038SOL    HW213114   1.010   4.066   1.401 -1.0514  0.1939  0.5492
 2039SOL     OW13115   6.055   1.185   0.096  0.6814  0.2559  0.2503
 2039SOL    HW113116   5.980   1.154   0.154  1.1785  1.5472  1.6162
 2039SOL    HW213117   6.118   1.241   0.150  3.0429 -1.4173 -0.6806
 2040SOL     OW13118   4.714   3.182   1.172  0.5451 -0.0523  0.0794
 2040SOL    HW113119   4.635   3.207   1.229  0.5949 -1.5445  0.8371
 2040SOL    HW213120   4.766   3.264   1.149 -0.7243  0.8407  0.3346
 2041SOL     OW13121   4.419   3.570   0.189  0.0310  0.3545  0.4823
 2041SOL    HW113122   4.465   3.540   0.105 -0.4566  2.7449 -0.6759
 2041SOL    HW213123   4.426   3.498   0.258  2.0546 -0.9103 -0.9803
 2042SOL     OW13124   5.539   2.939   5.509 -0.5842 -0.2028 -0.4685
 2042SOL    HW113125   5.501   3.027   5.479  0.2644  0.2719 -0.1713
 2042SOL    HW213126   5.489   2.907   5.589  0.3760  1.0048  0.6479
 2043SOL     OW13127   3.234   4.134   6.192 -0.1427 -0.3166 -0.0974
 2043SOL    HW113128   3.151   4.080   6.202 -0.5865  0.2604 -0.6935
 2043SOL    HW213129   3.312   4.072   6.178 -0.5477 -0.8316 -0.0771
 2044SOL     OW13130   1.895   1.076   1.286 -0.0328  0.4855 -0.1180
 2044SOL    HW113131   1.813   1.130   1.266  1.0870  2.5735  0.7966
 2044SOL    HW213132   1.892   0.991   1.234 -2.1144  1.1637 -1.1591
 2045SOL     OW13133   0.034   4.560   7.086  0.1111  0.1738  0.0193
 2045SOL    HW113134   0.129   4.588   7.103  0.0961  1.0325 -1.2639
 2045SOL    HW213135   0.032   4.491   7.014  0.0173 -2.1562  2.2009
 2046SOL     OW13136   4.712   3.859   3.099  0.6494 -0.2891  0.1660
 2046SOL    HW113137   4.762   3.921   3.039 -0.5750  1.1954  0.6639
 2046SOL    HW213138   4.750   3.864   3.191 -0.3023  0.7267  0.5096
 2047SOL     OW13139   5.981   4.315   3.769  0.3654  0.0601 -0.1345
 2047SOL    HW113140   5.954   4.292   3.863  0.2334  0.4284 -0.0798
 2047SOL    HW213141   6.076   4.346   3.768 -0.1093  1.5912  0.1331
 2048SOL     OW13142   0.287   0.115   0.211  0.4211  0.3410 -0.2658
 2048SOL    HW113143   0.239   0.072   0.287  0.7084 -0.2952 -0.4437
 2048SOL    HW213144   0.220   0.160   0.151  0.1296  0.2269 -0.0303
 2049SOL     OW13145   6.171   3.336   3.826  0.0829  0.0321  0.1249
 2049SOL    HW113146   6.103   3.400   3.863  1.6826  0.6897  1.9801
 2049SOL    HW213147   6.245   3.387   3.782 -0.8732 -0.6991 -2.4496
 2050SOL     OW13148   2.814   2.320   0.557  0.0005 -0.1729  0.0979
 2050SOL    HW113149   2.764   2.262   0.491 -0.0519 -0.7037  0.5997
 2050SOL    HW213150   2.751   2.384   0.599 -0.1261 -0.3793  0.2246
 2051SOL     OW13151   5.656   4.981   5.974  0.3265  0.4965  0.0174
 2051SOL    HW113152   5.660   5.071   6.018  0.8150 -0.9361  2.9943
 2051SOL    HW213153   5.578   4.929   6.010  0.5563 -0.6021 -1.0312
 2052SOL     OW13154   0.075   7.325   5.221  0.2480 -0.0497 -0.2078
 2052SOL    HW113155   0.122   7.237   5.228  0.8753  0.2266 -0.9431
 2052SOL    HW213156   0.102   7.383   5.299 -1.5395 -1.1469  1.2664
 2053SOL     OW13157   3.843   4.894   6.626 -0.4914  0.1621  0.6240
 2053SOL    HW113158   3.775   4.950   6.580  0.5826  1.9841  1.2136
 2053SOL    HW213159   3.891   4.837   6.559 -3.9843 -2.7090  0.4539
 2054SOL     OW13160   4.625   2.952   5.864 -0.0068  0.4995 -0.1755
 2054SOL    HW113161   4.616   2.910   5.774 -0.2313  1.8777 -0.8031
 2054SOL    HW213162   4.679   3.035   5.857 -0.1343  0.6873  0.9410
 2055SOL     OW13163   0.341   2.813   6.652  0.2001 -0.2258  0.0427
 2055SOL    HW113164   0.438   2.791   6.659 -0.0329 -0.9652  1.1333
 2055SOL    HW213165   0.287   2.738   6.691 -0.7456  0.9054  0.9391
 2056SOL     OW13166   2.303   4.930   3.577  0.1069 -0.0712  0.4747
 2056SOL    HW113167   2.219   4.982   3.559  0.4963 -0.1933 -1.8350
 2056SOL    HW213168   2.358   4.979   3.644  0.0704  2.0844 -1.0221
 2057SOL     OW13169   4.745   0.547   0.097 -0.0546  0.0657 -0.4396
 2057SOL    HW113170   4.675   0.496   0.146  1.2076 -1.7893 -0.5197
 2057SOL    HW213171   4.727   0.543  -0.001 -0.8338  1.1345 -0.3494
 2058SOL     OW13172   2.056   5.689   0.239  0.0445 -0.3213  0.1809
 2058SOL    HW113173   2.039   5.746   0.158 -2.2983  0.6190  1.2645
 2058SOL    HW213174   2.140   5.719   0.284 -0.5151  1.5468  0.0484
 2059SOL     OW13175   3.602   6.131   2.139  0.4453  0.1994 -0.1253
 2059SOL    HW113176   3.533   6.076   2.185  0.8616 -1.5813 -1.5764
 2059SOL    HW213177   3.613   6.218   2.187  0.2020 -1.2165  2.5872
 2060SOL     OW13178   0.840   3.748   4.235  0.3089 -0.1097 -0.1067
 2060SOL    HW113179   0.922   3.706   4.195  0.7888  0.9858 -0.2928
 2060SOL    HW213180   0.793   3.681   4.293  1.9174 -0.4274  0.8546
 2061SOL     OW13181   4.090   0.076   1.306 -0.1693  0.2452 -0.0805
 2061SOL    HW113182   4.150   0.058   1.227  0.2188 -0.0087  0.2674
 2061SOL    HW213183   4.141   0.128   1.374 -0.4969  0.4351  0.0189
 2062SOL     OW13184   5.290   5.692   5.374 -0.0330  0.0171  0.4697
 2062SOL    HW113185   5.202   5.646   5.389  0.7962 -1.6382  0.4318
 2062SOL    HW213186   5.334   5.710   5.462 -0.7116  1.4880  0.5231
 2063SOL     OW13187   6.994   7.122   0.392  0.0379 -0.1240 -0.7670
 2063SOL    HW113188   6.916   7.077   0.349 -0.9034 -0.4050  1.1982
 2063SOL    HW213189   7.062   7.054   0.417  0.0225 -0.1044 -0.6692
 2064SOL     OW13190   0.333   4.576   2.050 -0.6879  0.5287 -0.1203
 2064SOL    HW113191   0.286   4.505   2.104  1.3911 -0.0657  0.9799
 2064SOL    HW213192   0.335   4.549   1.954 -1.9986  0.2376 -0.0723
 2065SOL     OW13193   1.188   4.488   5.824  0.1222 -0.0210 -0.2569
 2065SOL    HW113194   1.128   4.462   5.899  1.3163 -0.7092  0.4904
 2065SOL    HW213195   1.281   4.501   5.859  1.1288 -2.3806 -1.9103
 2066SOL     OW13196   3.934   1.912   1.376  0.0032 -0.2237 -0.6073
 2066SOL    HW113197   3.908   1.822   1.411 -1.2705  0.8706  1.3454
 2066SOL    HW213198   4.024   1.937   1.412 -0.3576 -0.0275  0.1683
 2067SOL     OW13199   4.773   6.821   5.941 -0.2701  0.7463 -0.1708
 2067SOL    HW113200   4.800   6.893   6.005  0.6233  0.3303 -0.0714
 2067SOL    HW213201   4.770   6.733   5.990 -1.4722  0.7334 -0.2607
 2068SOL     OW13202   4.248   2.531   4.606  0.2673  0.1674 -0.0712
 2068SOL    HW113203   4.331   2.475   4.598 -0.3697 -0.5357 -2.2117
 2068SOL    HW213204   4.171   2.473   4.634  0.0304  0.3804 -0.2809
 2069SOL     OW13205   0.721   6.350   6.015  0.3655 -0.1346 -0.4057
 2069SOL    HW113206   0.811   6.322   5.981  0.0112 -0.4935 -1.0463
 2069SOL    HW213207   0.733   6.423   6.083  1.0597  0.7671 -1.4833
 2070SOL     OW13208   6.272   7.270   5.270  0.1518  0.6035  0.2019
 2070SOL    HW113209   6.237   7.331   5.199 -0.2085 -0.2152 -0.3371
 2070SOL    HW213210   6.270   7.316   5.358 -0.8799  1.0871 -0.0656
 2071SOL     OW13211   6.637   4.215   4.123 -0.1249  0.2989  0.0410
 2071SOL    HW113212   6.678   4.141   4.069 -0.4495  0.3295 -0.2449
 2071SOL    HW213213   6.703   4.245   4.192  1.1961  1.8762 -1.8616
 2072SOL     OW13214   6.587   3.626   1.667  0.9581 -0.0269  0.2220
 2072SOL    HW113215   6.576   3.582   1.756  0.4963  2.3929  1.4160
 2072SOL    HW213216   6.684   3.628   1.643  1.3345  1.2604  1.7362
 2073SOL     OW13217   5.655   2.024   6.478  0.1787 -0.7358 -0.4975
 2073SOL    HW113218   5.742   1.990   6.514  0.3639  1.3389  1.1231
 2073SOL    HW213219   5.591   2.039   6.553  0.4934  3.4288 -0.9412
 2074SOL     OW13220   7.085   7.291   5.610 -0.0107  0.7926  0.4294
 2074SOL    HW113221   6.991   7.259   5.621  0.8521 -1.1985  2.5500
 2074SOL    HW213222   7.143   7.250   5.681  2.6534  1.2050 -1.4078
 2075SOL     OW13223   6.990   0.342   2.588  0.3162  0.5749  0.2245
 2075SOL    HW113224   7.084   0.321   2.616  0.5971  1.6375  0.0944
 2075SOL    HW213225   6.941   0.257   2.570  1.1912  0.0046  0.5022
 2076SOL     OW13226   4.459   5.354   1.496  0.3739 -0.1255  0.0508
 2076SOL    HW113227   4.450   5.319   1.403  0.6627 -2.8950  1.0108
 2076SOL    HW213228   4.372   5.344   1.544  0.0979  1.7191 -0.0554
 2077SOL     OW13229   6.126   2.279   4.079 -0.1086  0.3134 -0.2007
 2077SOL    HW113230   6.083   2.312   4.163 -0.4741 -1.6451  0.4120
 2077SOL    HW213231   6.224   2.264   4.096 -0.7560 -3.0950  0.8508
 2078SOL     OW13232   5.530   1.006   1.508 -0.2170  0.1924  0.4579
 2078SOL    HW113233   5.608   0.992   1.446  0.0580  2.7186  0.1608
 2078SOL    HW213234   5.492   0.918   1.535  3.4146 -1.1723  1.4280
 2079SOL     OW13235   2.908   3.019   1.952  0.0646  0.5079 -0.0486
 2079SOL    HW113236   2.951   2.941   1.997 -0.4010  1.5304  2.1856
 2079SOL    HW213237   2.950   3.032   1.861  1.0701 -1.4913  0.1166
 2080SOL     OW13238   1.082   3.282   0.763 -0.1009 -0.2546  0.0659
 2080SOL    HW113239   1.106   3.185   0.774  0.5928 -0.3169 -1.8281
 2080SOL    HW213240   1.048   3.318   0.850  1.4992 -1.6759  1.3195
 2081SOL     OW13241   3.358   3.248   5.105  0.4290 -0.1159 -0.3038
 2081SOL    HW113242   3.375   3.157   5.069  2.6699  0.6289 -1.2258
 2081SOL    HW213243   3.444   3.289   5.135 -0.4119  1.9812 -0.6137
 2082SOL     OW13244   2.390   1.205   5.929 -0.0912  0.6775 -0.3985
 2082SOL    HW113245   2.429   1.148   6.001  0.8575  0.7321 -0.8667
 2082SOL    HW213246   2.293   1.222   5.950  0.0351  0.2638  0.5853
 2083SOL     OW13247   4.916   7.179   4.610 -0.2375 -0.2397  0.5795
 2083SOL    HW113248   4.995   7.212   4.557 -0.6608 -0.0400  0.0656
 2083SOL    HW213249   4.947   7.110   4.676 -0.0428 -2.4062 -1.6729
 2084SOL     OW13250   6.679   0.722   6.064 -0.1558 -0.0294  0.6141
 2084SOL    HW113251   6.638   0.801   6.109 -0.1382 -0.1579  0.8559
 2084SOL    HW213252   6.730   0.752   5.983 -0.4411  0.1659  0.5070
 2085SOL     OW13253   5.441   2.385   2.451  0.1094  0.0453  0.5409
 2085SOL    HW113254   5.361   2.325   2.452  0.2821 -0.2350 -0.8454
 2085SOL    HW213255   5.424   2.465   2.508 -0.4559 -0.8985  1.7193
 2086SOL     OW13256   4.001   0.438   0.515 -0.1607  0.1679  0.1630
 2086SOL    HW113257   4.011   0.375   0.439  0.0990  0.3396  0.0543
 2086SOL    HW213258   3.904   0.448   0.538 -0.4649  2.0414 -1.7873
 2087SOL     OW13259   0.505   7.258   0.289 -0.3297 -0.2833 -0.1062
 2087SOL    HW113260   0.555   7.255   0.202 -3.1289  0.8167 -1.8019
 2087SOL    HW213261   0.448   7.340   0.292  0.5250  0.2457  3.2510
 2088SOL     OW13262   3.688   5.063   2.400  0.5682 -0.2410  0.2589
 2088SOL    HW113263   3.695   5.020   2.490 -0.3462 -1.0437 -0.0492
 2088SOL    HW213264   3.691   4.993   2.328  1.4722  0.4093 -0.3412
 2089SOL     OW13265   3.987   2.203   2.682  0.3998 -0.3717 -0.4487
 2089SOL    HW113266   3.933   2.265   2.626 -0.4875 -1.1168 -0.4205
 2089SOL    HW213267   4.079   2.241   2.694  0.4611 -0.0030 -2.0266
 2090SOL     OW13268   0.845   0.506   5.967 -0.1566  0.0372 -0.0337
 2090SOL    HW113269   0.788   0.565   5.910  1.3655 -0.0283 -1.6592
 2090SOL    HW213270   0.942   0.530   5.954  0.3019 -0.9286  1.4566
 2091SOL     OW13271   5.090   0.829   2.630  0.3786  0.3616  0.1606
 2091SOL    HW113272   5.004   0.796   2.669 -0.2198 -1.5837 -2.6275
 2091SOL    HW213273   5.086   0.928   2.617 -0.7801  0.5092  1.5943
 2092SOL     OW13274   4.526   2.083   1.700  0.6342  0.4259  0.1846
 2092SOL    HW113275   4.453   2.151   1.709  0.1543 -0.3609  2.8090
 2092SOL    HW213276   4.609   2.118   1.742  1.1631  0.4696 -0.8947
 2093SOL     OW13277   2.872   4.170   2.964 -0.1525  0.2547 -0.2378
 2093SOL    HW113278   2.963   4.210   2.950  1.8927 -2.7378  3.3571
 2093SOL    HW213279   2.826   4.160   2.876  3.6124  0.5111 -2.3470
 2094SOL     OW13280   5.871   4.202   1.830 -0.2266 -0.3445 -0.0335
 2094SOL    HW113281   5.940   4.275   1.827  1.0985 -1.4450  2.3085
 2094SOL    HW213282   5.900   4.127   1.771 -1.3797  0.8173 -2.1116
 2095SOL     OW13283   2.630   3.058   6.462 -0.2186  0.0808  0.2699
 2095SOL    HW113284   2.605   3.055   6.365  2.0371 -2.1587 -0.3109
 2095SOL    HW213285   2.552   3.028   6.517 -1.4897  1.2591 -0.8470
 2096SOL     OW13286   5.562   6.382   3.143 -0.3693 -0.3899 -0.3035
 2096SOL    HW113287   5.557   6.457   3.077  1.3058 -1.6056 -1.8754
 2096SOL    HW213288   5.586   6.297   3.095 -1.6038 -1.8237  1.5209
 2097SOL     OW13289   3.040   3.358   1.459  0.4602 -0.2273 -0.0235
 2097SOL    HW113290   3.090   3.376   1.374 -0.6818  0.2368 -0.6134
 2097SOL    HW213291   3.040   3.440   1.516  0.1413 -0.1347 -0.1527
 2098SOL     OW13292   1.382   0.559   5.498 -0.5838 -0.3242  0.4943
 2098SOL    HW113293   1.473   0.584   5.464  0.2622  0.4378  3.2217
 2098SOL    HW213294   1.377   0.459   5.508 -0.5036 -0.4762 -0.8676
 2099SOL     OW13295   7.356   4.508   0.518  0.2449 -0.3412  0.0402
 2099SOL    HW113296   7.386   4.585   0.575  0.2867 -3.2618  4.1110
 2099SOL    HW213297   7.267   4.475   0.549  0.7887 -2.7503 -0.8634
 2100SOL     OW13298   2.467   5.845   0.050  0.4232 -0.0693  0.0079
 2100SOL    HW113299   2.547   5.802   0.009 -0.2769 -2.9148  1.5036
 2100SOL    HW213300   2.385   5.820  -0.001  0.1457  0.5765  0.1221
 2101SOL     OW13301   3.370   3.494   4.788 -0.2672  0.1412  0.1899
 2101SOL    HW113302   3.432   3.547   4.846  0.3982  1.2234 -1.4487
 2101SOL    HW213303   3.290   3.549   4.765  0.8357  0.7832 -2.2208
 2102SOL     OW13304   2.684   2.967   2.696  0.2952 -0.5427  0.1911
 2102SOL    HW113305   2.764   3.026   2.704  0.4724 -0.5350 -1.3823
 2102SOL    HW213306   2.644   2.952   2.786  1.0614  0.8519  0.7823
 2103SOL     OW13307   5.364   2.133   3.232 -0.2763 -0.3302 -0.6503
 2103SOL    HW113308   5.429   2.079   3.285 -0.6073 -0.3432 -0.2548
 2103SOL    HW213309   5.372   2.109   3.135  0.8497  0.2247 -0.7065
 2104SOL     OW13310   6.276   4.746   3.511 -1.0355 -0.3927 -0.3308
 2104SOL    HW113311   6.321   4.666   3.551  0.6865  0.2843 -0.8506
 2104SOL    HW213312   6.345   4.816   3.491 -2.7663  2.2125  2.3306
 2105SOL     OW13313   0.504   3.162   5.306 -0.2247  0.2826 -0.4837
 2105SOL    HW113314   0.512   3.094   5.379 -3.0172  1.8269  1.3443
 2105SOL    HW213315   0.595   3.187   5.274  0.9049 -3.5342 -0.5099
 2106SOL     OW13316   1.537   6.584   0.334  0.1432  0.0905 -0.2525
 2106SOL    HW113317   1.580   6.610   0.248  1.3466  1.5703  0.7752
 2106SOL    HW213318   1.572   6.642   0.408 -1.8207 -0.3040  1.0180
 2107SOL     OW13319   7.249   0.675   0.741  0.7826 -0.1356  0.5597
 2107SOL    HW113320   7.280   0.648   0.649  1.0969  0.3448  0.5239
 2107SOL    HW213321   7.251   0.774   0.749 -0.9758 -0.0713  0.4855
 2108SOL     OW13322   4.806   5.304   6.387 -0.0465 -0.0002  0.2925
 2108SOL    HW113323   4.807   5.382   6.325  0.9478 -0.0695  0.2240
 2108SOL    HW213324   4.899   5.272   6.403 -0.4687 -1.3790  0.0744
 2109SOL     OW13325   0.157   5.472   2.338  0.0112  0.0239 -0.1180
 2109SOL    HW113326   0.227   5.452   2.270  0.0065  1.1288 -0.4602
 2109SOL    HW213327   0.074   5.503   2.291  0.1264  1.1320  0.3973
 2110SOL     OW13328   6.675   0.763   2.717  0.2124  0.0975 -0.2608
 2110SOL    HW113329   6.578   0.764   2.743  0.5964  0.8270  1.2016
 2110SOL    HW213330   6.721   0.842   2.757  1.7332 -1.0360  0.2688
 2111SOL     OW13331   4.382   0.892   3.584  0.4004 -0.5515  0.5367
 2111SOL    HW113332   4.377   0.984   3.623  0.2295 -0.8477  1.2339
 2111SOL    HW213333   4.362   0.825   3.656  0.9104 -1.1488  0.1234
 2112SOL     OW13334   0.401   3.129   7.326  0.3592  0.0042 -0.6779
 2112SOL    HW113335   0.391   3.229   7.327  0.8183  0.0549 -0.9217
 2112SOL    HW213336   0.337   3.089   7.391  0.8919  0.5266  0.1894
 2113SOL     OW13337   4.253   1.870   3.465  0.1761 -0.5358 -0.4493
 2113SOL    HW113338   4.171   1.883   3.520  1.1218  0.6432  0.7126
 2113SOL    HW213339   4.317   1.944   3.483  2.0614 -2.1554 -0.3351
 2114SOL     OW13340   3.144   3.047   0.356  0.4623  0.8343  0.1086
 2114SOL    HW113341   3.207   3.089   0.422 -0.9814  0.8661  1.5165
 2114SOL    HW213342   3.105   3.117   0.298 -0.5535  1.2292  1.2447
 2115SOL     OW13343   2.528   2.118   0.113  0.0140  0.5095  0.0879
 2115SOL    HW113344   2.474   2.191   0.071 -0.7013  1.0669  1.9207
 2115SOL    HW213345   2.468   2.041   0.137  0.7101 -0.5772 -1.5406
 2116SOL     OW13346   6.780   4.634   5.719  0.3178 -0.3661  0.1347
 2116SOL    HW113347   6.828   4.547   5.710  0.3058 -0.1384 -2.5706
 2116SOL    HW213348   6.847   4.708   5.729  0.3559 -0.5473  1.3280
 2117SOL     OW13349   2.541   1.772   3.384 -0.6089  0.1644 -0.2653
 2117SOL    HW113350   2.591   1.756   3.469 -0.0291 -0.1699 -0.6695
 2117SOL    HW213351   2.558   1.866   3.353 -0.8971  0.3176  0.0365
 2118SOL     OW13352   7.117   2.883   1.576 -0.4624  0.5294 -0.0143
 2118SOL    HW113353   7.105   2.982   1.567 -0.0455  0.5654 -0.2126
 2118SOL    HW213354   7.074   2.837   1.499 -1.2816  0.5073  0.4512
 2119SOL     OW13355   2.248   6.932   4.281  0.1847  0.5318 -0.3743
 2119SOL    HW113356   2.264   6.834   4.269  0.6162  0.5929 -0.3109
 2119SOL    HW213357   2.312   6.968   4.349 -0.0276  0.8410 -0.3370
 2120SOL     OW13358   0.528   4.025   0.184  0.2194  0.0851 -0.0096
 2120SOL    HW113359   0.500   4.077   0.265 -2.6125 -0.5035 -0.5355
 2120SOL    HW213360   0.570   3.939   0.212 -0.7588 -0.1200  0.8646
 2121SOL     OW13361   2.296   5.713   2.989 -0.0757  0.0976 -0.5002
 2121SOL    HW113362   2.324   5.789   3.049 -2.9958  1.3634 -0.6357
 2121SOL    HW213363   2.306   5.627   3.038 -1.2172  1.0127  1.4199
 2122SOL     OW13364   3.356   0.352   6.838  0.0171  0.0616  0.5395
 2122SOL    HW113365   3.424   0.363   6.909 -0.2123 -0.6903  0.8784
 2122SOL    HW213366   3.308   0.439   6.823  2.2354  1.0696 -0.9389
 2123SOL     OW13367   0.114   2.230   0.632  0.0229 -0.0804 -0.1900
 2123SOL    HW113368   0.069   2.312   0.665 -0.3115 -0.5015  0.3907
 2123SOL    HW213369   0.213   2.238   0.647 -0.0542  0.0294  0.2426
 2124SOL     OW13370   4.923   0.304   3.515  0.4294 -0.3590  0.0193
 2124SOL    HW113371   4.844   0.323   3.573  0.0297  1.3400 -1.0568
 2124SOL    HW213372   4.893   0.263   3.429  0.5077  2.1978 -1.2490
 2125SOL     OW13373   5.391   7.293   1.711 -0.4625 -0.0235 -0.4315
 2125SOL    HW113374   5.359   7.233   1.638  2.0274 -1.4757 -0.3824
 2125SOL    HW213375   5.406   7.385   1.675  0.4874 -0.6621 -1.6712
 2126SOL     OW13376   1.358   1.503   0.405  0.3220 -0.2358 -0.6939
 2126SOL    HW113377   1.268   1.460   0.405  0.6308 -0.8998 -0.0543
 2126SOL    HW213378   1.424   1.442   0.449  0.9496  0.5131 -0.5824
 2127SOL     OW13379   5.535   4.651   3.648  0.1678 -0.4226 -0.0082
 2127SOL    HW113380   5.625   4.640   3.606 -1.2123  0.3811 -3.3240
 2127SOL    HW213381   5.537   4.730   3.709  2.2007 -1.5756  1.5036
 2128SOL     OW13382   0.684   4.312   4.418  0.1159 -0.1685  0.0052
 2128SOL    HW113383   0.700   4.398   4.370 -0.1948  1.2933  2.4236
 2128SOL    HW213384   0.772   4.272   4.444  0.2280  0.2880  0.3357
 2129SOL     OW13385   6.327   6.192   6.495 -0.2973 -0.0646  0.0235
 2129SOL    HW113386   6.263   6.153   6.429 -1.4471 -1.4546  1.8897
 2129SOL    HW213387   6.292   6.280   6.527 -1.1794 -0.7006  0.8462
 2130SOL     OW13388   1.486   4.356   6.182 -0.3036 -0.5830 -0.0813
 2130SOL    HW113389   1.472   4.384   6.087 -2.1301  0.0495  0.3592
 2130SOL    HW213390   1.400   4.364   6.232  0.5235 -1.4317  1.4996
 2131SOL     OW13391   5.095   7.290   1.905 -0.0389 -0.0510 -0.2975
 2131SOL    HW113392   5.157   7.367   1.889 -0.4124  0.3397  0.1439
 2131SOL    HW213393   5.127   7.236   1.982  1.3381 -1.4983 -1.8253
 2132SOL     OW13394   0.920   4.909   1.997  0.1194 -0.0386  0.2793
 2132SOL    HW113395   0.904   4.820   2.041  1.0516 -0.1530  0.4134
 2132SOL    HW213396   0.846   4.929   1.933 -0.4967 -0.5507  0.8294
 2133SOL     OW13397   1.496   2.751   2.691  0.4938 -0.0771  0.5205
 2133SOL    HW113398   1.457   2.827   2.639  1.7419 -0.4952 -1.0807
 2133SOL    HW213399   1.539   2.786   2.774  1.0462  0.9973 -0.1919
 2134SOL     OW13400   1.805   1.089   5.128 -0.1913 -0.1157  0.4284
 2134SOL    HW113401   1.856   1.076   5.213 -0.0253 -2.4263 -0.0048
 2134SOL    HW213402   1.809   1.185   5.101 -0.7136  0.7550  3.3303
 2135SOL     OW13403   3.666   2.190   1.598 -0.2623 -0.4003  0.8380
 2135SOL    HW113404   3.604   2.227   1.528 -1.4039  0.5320  2.3098
 2135SOL    HW213405   3.760   2.193   1.564 -0.6584  1.2267 -0.1767
 2136SOL     OW13406   6.882   4.027   5.309  0.2829  0.2199  0.0855
 2136SOL    HW113407   6.836   4.083   5.240  2.0863  0.5786 -0.8693
 2136SOL    HW213408   6.822   3.952   5.337 -1.1781  1.1450 -0.5043
 2137SOL     OW13409   4.375   4.601   2.481 -0.2600 -0.7961 -0.2311
 2137SOL    HW113410   4.305   4.560   2.422 -1.6767  0.3602  0.6106
 2137SOL    HW213411   4.332   4.637   2.564  1.3071  0.1269  0.2095
 2138SOL     OW13412   4.793   6.528   3.613 -0.1974  0.4694  0.0139
 2138SOL    HW113413   4.747   6.509   3.699  1.9208 -0.3350  0.9809
 2138SOL    HW213414   4.887   6.556   3.630  1.4500 -3.2885 -2.1420
 2139SOL     OW13415   2.621   5.678   6.594 -0.0266  0.3625 -0.1529
 2139SOL    HW113416   2.715   5.650   6.613  0.2483  1.7998  0.6648
 2139SOL    HW213417   2.599   5.759   6.648 -1.0322  1.3186 -1.9587
 2140SOL     OW13418   0.577   1.553   3.283 -0.3080 -0.2132 -0.2946
 2140SOL    HW113419   0.620   1.635   3.245 -0.1443 -1.1140 -2.1219
 2140SOL    HW213420   0.647   1.485   3.303 -0.6850 -0.9733 -1.4980
 2141SOL     OW13421   4.767   1.084   6.980  0.3110 -0.3301  0.4668
 2141SOL    HW113422   4.837   1.139   7.025 -0.3100  2.1197 -1.4391
 2141SOL    HW213423   4.797   1.061   6.887 -0.3350 -1.3875  0.5225
 2142SOL     OW13424   5.630   0.713   6.545 -0.4886 -0.4321 -0.1739
 2142SOL    HW113425   5.579   0.651   6.604 -0.0667 -0.3456  0.2820
 2142SOL    HW213426   5.579   0.799   6.536  0.7263  0.5699  2.2532
 2143SOL     OW13427   4.960   0.686   2.336  0.0375  0.1779  0.2499
 2143SOL    HW113428   5.029   0.645   2.276  0.1914 -1.2732  1.3769
 2143SOL    HW213429   4.959   0.785   2.323  1.1871  0.0422 -0.9773
 2144SOL     OW13430   4.371   0.740   2.692 -0.3040  0.1404  0.1189
 2144SOL    HW113431   4.306   0.759   2.619 -0.2202 -0.8947 -0.2332
 2144SOL    HW213432   4.460   0.781   2.669 -0.7594  1.3755  0.5061
 2145SOL     OW13433   0.910   1.586   2.996  0.2522  0.2117 -0.0578
 2145SOL    HW113434   0.880   1.681   3.007  1.7185  0.7512 -0.4996
 2145SOL    HW213435   0.868   1.528   3.066  0.5340  1.4686  1.1699
 2146SOL     OW13436   2.223   2.642   1.639  0.1103 -0.3573  0.0535
 2146SOL    HW113437   2.319   2.626   1.660  0.4589  0.3533 -0.9111
 2146SOL    HW213438   2.215   2.670   1.543 -0.6679  2.9215  1.0165
 2147SOL     OW13439   3.065   4.278   1.764  0.3190  0.4093 -0.2317
 2147SOL    HW113440   3.078   4.194   1.818  0.0980  1.1533  0.9969
 2147SOL    HW213441   3.154   4.309   1.730  0.5487  0.2940  0.2559
 2148SOL     OW13442   5.409   5.023   0.454  0.5441  0.1307 -0.7834
 2148SOL    HW113443   5.390   4.943   0.510  0.2938  0.3300 -0.5834
 2148SOL    HW213444   5.341   5.094   0.473  0.0801 -0.0327 -1.7983
 2149SOL     OW13445   5.116   3.519   0.949 -0.4069 -0.6475  0.1980
 2149SOL    HW113446   5.096   3.427   0.982 -0.3525 -1.0246 -0.7938
 2149SOL    HW213447   5.158   3.513   0.858 -1.3696  0.4001 -0.3216
 2150SOL     OW13448   1.085   5.135   6.582  0.4205 -0.1203  0.1024
 2150SOL    HW113449   1.131   5.224   6.590 -1.7315  0.9279  1.4633
 2150SOL    HW213450   1.144   5.063   6.618  1.0421  1.1765  1.7783
 2151SOL     OW13451   1.045   2.081   3.270  0.3485  0.2956 -0.3214
 2151SOL    HW113452   1.054   1.997   3.324 -0.3955 -0.5110 -1.4232
 2151SOL    HW213453   1.116   2.146   3.298  0.7790 -0.6018  0.7224
 2152SOL     OW13454   6.666   4.708   4.497 -0.4315 -0.3066  0.6067
 2152SOL    HW113455   6.617   4.695   4.411 -0.5254 -0.5333  0.6954
 2152SOL    HW213456   6.716   4.624   4.520 -0.4078 -0.2472  0.7725
 2153SOL     OW13457   7.171   1.857   4.759 -0.2488 -0.6266 -0.0923
 2153SOL    HW113458   7.099   1.873   4.827  1.4550  0.8068  1.4324
 2153SOL    HW213459   7.153   1.914   4.678 -0.0831  0.8308  0.8659
 2154SOL     OW13460   5.057   3.817   6.364  0.1136  0.7902  0.1100
 2154SOL    HW113461   5.004   3.735   6.384  1.1104  0.2915  0.7411
 2154SOL    HW213462   5.023   3.893   6.420  0.3107  0.3775  0.7943
 2155SOL     OW13463   0.654   7.286   1.008  0.3138  0.0970  0.3004
 2155SOL    HW113464   0.635   7.382   1.029 -1.3447 -0.1891  0.2016
 2155SOL    HW213465   0.606   7.228   1.074  1.1336 -0.6751  0.2219
 2156SOL     OW13466   0.965   6.631   6.603  0.1545 -0.1454 -0.3281
 2156SOL    HW113467   1.009   6.694   6.667  0.5534 -0.3026 -0.4500
 2156SOL    HW213468   0.996   6.650   6.510  1.5347 -1.5782 -0.1866
 2157SOL     OW13469   5.637   0.995   3.727  0.1306 -0.1019 -0.2318
 2157SOL    HW113470   5.548   0.963   3.758  0.0391  1.7019  1.4368
 2157SOL    HW213471   5.626   1.051   3.645 -0.4119  1.0187  0.5905
 2158SOL     OW13472   5.411   1.123   3.108  0.1632  0.7838  0.0774
 2158SOL    HW113473   5.318   1.088   3.116  1.0281 -1.7943 -0.6116
 2158SOL    HW213474   5.474   1.060   3.153  1.8157  1.3418 -1.4149
 2159SOL     OW13475   4.422   3.885   3.935  0.1242  0.3103  0.6416
 2159SOL    HW113476   4.377   3.884   4.024  0.1057 -0.3064  0.6275
 2159SOL    HW213477   4.422   3.979   3.899  0.1842  0.5706  1.3092
 2160SOL     OW13478   1.287   2.918   6.200  0.2770 -0.1396  0.5802
 2160SOL    HW113479   1.206   2.970   6.227  0.7259  0.5054  0.6916
 2160SOL    HW213480   1.353   2.978   6.156 -0.4674 -1.2117 -2.0679
 2161SOL     OW13481   1.351   0.268   6.684 -0.2678  0.1194 -0.6292
 2161SOL    HW113482   1.427   0.212   6.653  1.6223  1.4168  1.5300
 2161SOL    HW213483   1.343   0.349   6.625  0.8679  0.6419 -0.0757
 2162SOL     OW13484   3.545   3.665   4.931 -0.4030  0.0410 -0.5281
 2162SOL    HW113485   3.592   3.606   4.996 -2.5644 -1.3956 -0.2147
 2162SOL    HW213486   3.606   3.688   4.855  0.3814 -2.8540 -0.8005
 2163SOL     OW13487   3.480   5.221   2.450 -0.0671  0.8427 -0.6293
 2163SOL    HW113488   3.546   5.146   2.437 -0.4040  0.8470 -2.3592
 2163SOL    HW213489   3.446   5.217   2.544  2.3734  0.8269  0.3146
 2164SOL     OW13490   5.885   4.696   0.615 -0.2555  0.0324  0.0789
 2164SOL    HW113491   5.872   4.793   0.598  1.1398  0.3170  0.5454
 2164SOL    HW213492   5.975   4.681   0.656 -0.3928 -1.4744 -0.1306
 2165SOL     OW13493   2.628   1.455   1.525 -0.7284  0.2655  0.2399
 2165SOL    HW113494   2.632   1.393   1.603 -0.2908  0.8739  0.6946
 2165SOL    HW213495   2.611   1.548   1.556 -1.5518  0.3510 -0.4618
 2166SOL     OW13496   6.225   6.747   2.190 -0.2712 -0.0024  0.8246
 2166SOL    HW113497   6.252   6.678   2.258 -0.5972 -1.6593 -0.6786
 2166SOL    HW213498   6.306   6.773   2.136 -1.1050 -3.4952 -2.3614
 2167SOL     OW13499   4.711   5.349   6.993 -0.4358 -0.6904 -0.1250
 2167SOL    HW113500   4.725   5.404   6.911 -0.5924 -0.7046 -0.1626
 2167SOL    HW213501   4.788   5.359   7.055  0.1172 -1.4068 -0.6861
 2168SOL     OW13502   3.357   4.880   0.001 -0.1153  0.3373 -0.5295
 2168SOL    HW113503   3.391   4.922   0.085 -1.2751 -1.5767  0.9450
 2168SOL    HW213504   3.376   4.781   0.003 -2.6528 -0.2067 -1.2033
 2169SOL     OW13505   2.632   2.884   3.625  0.2303 -0.2020 -0.2459
 2169SOL    HW113506   2.670   2.877   3.717 -0.1906  1.0741  0.0350
 2169SOL    HW213507   2.634   2.795   3.581 -0.9651 -1.1427  1.5576
 2170SOL     OW13508   2.520   6.283   5.727  0.3112  0.3484  0.3523
 2170SOL    HW113509   2.589   6.225   5.772 -0.1938  0.2024  0.9365
 2170SOL    HW213510   2.434   6.232   5.719 -0.0228  0.8863  0.5290
 2171SOL     OW13511   4.193   0.990   1.540 -0.5218  0.3686  0.5880
 2171SOL    HW113512   4.124   0.938   1.490  0.7864 -0.7310 -0.1208
 2171SOL    HW213513   4.199   0.955   1.634 -1.5991  1.1144  0.9367
 2172SOL     OW13514   1.481   3.607   5.598 -0.1527  0.3418  0.2519
 2172SOL    HW113515   1.470   3.690   5.543 -0.7200 -0.8927 -1.5169
 2172SOL    HW213516   1.568   3.612   5.648  0.7966  1.1021 -1.4327
 2173SOL     OW13517   4.946   1.017   4.306  0.0568  0.2302 -0.1344
 2173SOL    HW113518   4.956   1.024   4.207  0.8774 -0.6612 -0.1202
 2173SOL    HW213519   4.988   1.097   4.349  1.0101 -0.1068 -0.4340
 2174SOL     OW13520   2.934   3.557   0.133  0.0108  0.2084 -0.2102
 2174SOL    HW113521   3.028   3.529   0.153  0.3877  0.7678 -1.1592
 2174SOL    HW213522   2.870   3.494   0.178  0.8068  1.3547  2.6164
 2175SOL     OW13523   1.683   4.807   7.116 -0.0139 -0.0363 -0.4551
 2175SOL    HW113524   1.597   4.848   7.146  0.1149  0.7258 -1.0966
 2175SOL    HW213525   1.759   4.854   7.160  0.0780 -0.6182  0.0060
 2176SOL     OW13526   4.970   5.377   2.058 -0.3812  0.6690 -0.0179
 2176SOL    HW113527   5.037   5.342   1.993 -2.3228 -3.6494  0.0734
 2176SOL    HW213528   5.003   5.362   2.152 -1.6152 -2.0680  0.0399
 2177SOL     OW13529   1.679   1.339   0.233 -0.1781 -0.1327  0.1124
 2177SOL    HW113530   1.659   1.275   0.308 -0.7509  1.4150  1.3024
 2177SOL    HW213531   1.773   1.371   0.241  0.0297 -0.6192 -0.3397
 2178SOL     OW13532   3.236   3.115   3.710 -0.1284  0.1061 -0.8392
 2178SOL    HW113533   3.153   3.169   3.709  0.9924  1.8788 -0.4900
 2178SOL    HW213534   3.213   3.019   3.725 -2.0728  0.6015 -0.4976
 2179SOL     OW13535   1.343   3.157   5.419  0.1498  0.0411 -0.2754
 2179SOL    HW113536   1.368   3.253   5.432  0.2258 -0.1144  0.7377
 2179SOL    HW213537   1.253   3.151   5.377  0.5550  0.5694 -1.2326
 2180SOL     OW13538   3.730   6.421   0.121  0.1932  0.2091 -0.6523
 2180SOL    HW113539   3.642   6.384   0.151  0.4157 -0.8697 -1.3251
 2180SOL    HW213540   3.800   6.397   0.188  0.1582  0.2579 -0.5974
 2181SOL     OW13541   6.624   1.965   2.605 -0.8469  0.5957 -0.2080
 2181SOL    HW113542   6.574   1.965   2.518 -1.3485 -1.5444  0.0543
 2181SOL    HW213543   6.562   1.990   2.679 -1.5939 -2.0852  0.1212
 2182SOL     OW13544   4.872   6.645   4.243 -0.0426  0.3159 -0.6441
 2182SOL    HW113545   4.931   6.721   4.269 -0.8210  1.0947 -1.1176
 2182SOL    HW213546   4.832   6.605   4.325  0.9438 -0.0591 -0.3416
 2183SOL     OW13547   6.765   2.521   2.369  0.9887  0.1011 -0.4199
 2183SOL    HW113548   6.737   2.502   2.463 -1.8298  1.0523 -1.0289
 2183SOL    HW213549   6.831   2.596   2.369  1.1645 -0.0428  0.8279
 2184SOL     OW13550   6.394   5.005   5.518 -0.2723  0.6765 -0.7001
 2184SOL    HW113551   6.424   5.042   5.430 -1.5039  1.7094 -0.7086
 2184SOL    HW213552   6.466   4.948   5.556  0.7613  1.2056 -1.8021
 2185SOL     OW13553   0.236   3.668   3.981  0.3882  0.1922 -0.5452
 2185SOL    HW113554   0.238   3.568   3.974  1.6002  0.1389  0.3167
 2185SOL    HW213555   0.326   3.701   4.008 -0.8075  1.2437  2.4086
 2186SOL     OW13556   3.163   5.177   7.129  0.0465 -0.1798  0.1471
 2186SOL    HW113557   3.100   5.254   7.126 -0.2528 -0.4418 -0.6377
 2186SOL    HW213558   3.232   5.192   7.199  0.1368  0.9170 -0.1738
 2187SOL     OW13559   4.773   0.635   2.135 -0.1434  0.2534 -0.2465
 2187SOL    HW113560   4.703   0.568   2.162  0.1523  0.1176  0.1861
 2187SOL    HW213561   4.837   0.648   2.211 -0.2276  1.0610 -0.3149
 2188SOL     OW13562   6.759   2.038   4.182 -0.0281  0.1842 -0.4106
 2188SOL    HW113563   6.790   1.963   4.240 -0.0796 -0.4089 -1.1414
 2188SOL    HW213564   6.672   2.073   4.217 -1.0987 -1.5113 -1.2665
 2189SOL     OW13565   3.215   0.691   3.365  0.0621  0.4608  0.0612
 2189SOL    HW113566   3.244   0.625   3.435  0.8692  1.4318  0.6516
 2189SOL    HW213567   3.209   0.646   3.276 -0.4220 -0.6557  0.6504
 2190SOL     OW13568   6.701   2.588   4.231 -0.6460 -0.0449 -0.5242
 2190SOL    HW113569   6.723   2.644   4.151  0.0978 -4.0335 -3.2040
 2190SOL    HW213570   6.618   2.535   4.213 -0.4127 -1.0898  1.3313
 2191SOL     OW13571   2.029   4.754   4.815  0.5137  0.7054  0.1858
 2191SOL    HW113572   2.088   4.743   4.895  0.1593  1.6508  0.5801
 2191SOL    HW213573   2.077   4.805   4.744  0.4893  0.6944  0.1611
 2192SOL     OW13574   6.561   3.587   7.203 -0.5845 -0.1415  0.3824
 2192SOL    HW113575   6.597   3.670   7.160 -0.7720  0.6016  1.6328
 2192SOL    HW213576   6.491   3.547   7.144  0.8027 -0.4409 -1.0873
 2193SOL     OW13577   0.118   4.575   3.828  0.1232 -0.2933  0.2334
 2193SOL    HW113578   0.127   4.554   3.925  1.1735 -1.0173 -0.0114
 2193SOL    HW213579   0.116   4.490   3.775  0.6402  0.1095 -0.4558
 2194SOL     OW13580   2.584   4.006   0.149  0.0399 -0.2366 -0.4885
 2194SOL    HW113581   2.496   4.046   0.173  1.7500  1.9259  2.5425
 2194SOL    HW213582   2.627   4.061   0.077 -0.6957 -0.7765 -1.3409
 2195SOL     OW13583   4.030   3.147   0.184 -0.2341 -0.6305  0.4442
 2195SOL    HW113584   4.015   3.059   0.229  0.0914 -0.5644  0.6803
 2195SOL    HW213585   4.093   3.202   0.238  1.4671 -1.1934 -0.9321
 2196SOL     OW13586   4.012   7.337   2.970 -0.4815  0.5533  0.0747
 2196SOL    HW113587   3.913   7.345   2.983 -0.1599  1.9116  1.8953
 2196SOL    HW213588   4.035   7.362   2.876 -1.7743  1.0278 -0.1282
 2197SOL     OW13589   1.610   4.592   4.214  0.1514  0.5090 -0.5995
 2197SOL    HW113590   1.684   4.567   4.152  2.0537 -0.2804  1.8690
 2197SOL    HW213591   1.527   4.612   4.162  2.0119  1.1435 -3.4267
 2198SOL     OW13592   3.576   0.088   1.985  0.2047  0.2274  0.4957
 2198SOL    HW113593   3.628   0.153   2.041 -0.3262  0.5851  0.5773
 2198SOL    HW213594   3.637   0.047   1.917  0.7693  0.0785  1.0798
 2199SOL     OW13595   4.248   3.982   3.349 -0.2793  0.7791  0.2010
 2199SOL    HW113596   4.241   3.886   3.321 -1.6578  1.4120 -1.7527
 2199SOL    HW213597   4.339   4.017   3.325 -0.5261  0.5651 -1.0560
 2200SOL     OW13598   6.010   3.071   5.069  0.1108  0.0834  0.0784
 2200SOL    HW113599   6.005   2.986   5.017  1.3192  0.0551  0.0006
 2200SOL    HW213600   5.970   3.145   5.015  0.0881 -0.2144 -0.3158
 2201SOL     OW13601   1.109   4.579   7.348  0.3617  0.4067 -0.2486
 2201SOL    HW113602   1.164   4.647   7.300 -0.3658  0.2672 -1.3013
 2201SOL    HW213603   1.053   4.529   7.282 -1.7668  1.2261  0.8728
 2202SOL     OW13604   3.543   5.201   5.998  0.5242 -0.2718 -0.4358
 2202SOL    HW113605   3.580   5.109   5.987  0.7814 -0.2588  0.2633
 2202SOL    HW213606   3.499   5.209   6.088  1.2961  0.5542 -0.1207
 2203SOL     OW13607   0.382   3.763   1.095  0.6754 -0.0649 -0.1280
 2203SOL    HW113608   0.319   3.704   1.045  2.7321 -2.5497  0.1688
 2203SOL    HW213609   0.461   3.784   1.037  0.1338  2.1891 -0.1173
 2204SOL     OW13610   7.093   0.884   2.308  0.3215 -0.2333  0.1576
 2204SOL    HW113611   7.108   0.852   2.215 -0.5566 -0.5057  0.1055
 2204SOL    HW213612   7.170   0.856   2.366  2.0287  1.9059 -0.9581
 2205SOL     OW13613   5.000   3.950   2.185 -0.7819  0.7341 -0.2749
 2205SOL    HW113614   4.932   3.878   2.170  0.1411 -0.2503  0.1530
 2205SOL    HW213615   5.016   3.960   2.284  2.3601 -1.6325 -0.4498
 2206SOL     OW13616   7.269   0.941   5.468 -0.2141 -0.1307  0.0325
 2206SOL    HW113617   7.246   1.033   5.437 -0.4823 -0.0621  0.4257
 2206SOL    HW213618   7.363   0.939   5.500 -0.3837  0.1454  0.5521
 2207SOL     OW13619   2.258   4.281   6.883 -0.5702  0.3000  0.1099
 2207SOL    HW113620   2.314   4.328   6.814 -1.3697  0.4655 -0.4369
 2207SOL    HW213621   2.229   4.192   6.847 -1.2779  0.5343  0.0800
 2208SOL     OW13622   4.568   4.133   2.817  0.2333 -0.7675  0.2290
 2208SOL    HW113623   4.527   4.214   2.775 -0.2847 -0.9903  0.3042
 2208SOL    HW213624   4.584   4.064   2.747 -0.6516 -1.1474  0.3867
 2209SOL     OW13625   0.705   1.100   2.024  0.2983  0.1174  0.0461
 2209SOL    HW113626   0.777   1.129   1.960  0.0085  0.7077 -0.0084
 2209SOL    HW213627   0.660   1.180   2.063 -0.7697 -0.2465 -0.4105
 2210SOL     OW13628   2.605   6.670   5.491 -0.0914  0.5733  0.4238
 2210SOL    HW113629   2.652   6.607   5.554 -0.4128  0.5073  0.5988
 2210SOL    HW213630   2.671   6.734   5.452  0.5200 -0.8698 -0.9584
 2211SOL     OW13631   6.352   5.846   1.551 -0.2671  0.2197 -0.2528
 2211SOL    HW113632   6.337   5.922   1.488  2.7056  1.5823  0.6348
 2211SOL    HW213633   6.334   5.875   1.645  1.2450 -0.0419  0.1302
 2212SOL     OW13634   0.648   2.238   0.744 -0.2126 -0.2387 -0.5353
 2212SOL    HW113635   0.632   2.306   0.673  0.6722  0.4919 -0.0508
 2212SOL    HW213636   0.732   2.188   0.724 -0.5080 -0.7381 -0.5382
 2213SOL     OW13637   1.773   0.723   3.073  0.3813 -0.0496  0.1366
 2213SOL    HW113638   1.818   0.747   3.159  2.0983  1.6369 -1.1646
 2213SOL    HW213639   1.800   0.631   3.046 -1.6021 -1.3030  2.2672
 2214SOL     OW13640   4.359   0.290   0.557 -0.1013  0.2105 -0.0156
 2214SOL    HW113641   4.308   0.259   0.477  0.1562  0.2907 -0.2114
 2214SOL    HW213642   4.447   0.242   0.561 -0.1297  0.1775  0.2414
 2215SOL     OW13643   5.989   3.923   2.768  0.5405  0.5835 -0.0408
 2215SOL    HW113644   6.078   3.969   2.764  0.2151  1.2668  0.6122
 2215SOL    HW213645   5.938   3.955   2.847  0.2893 -0.8681  0.4020
 2216SOL     OW13646   4.600   1.322   4.302  0.2127 -0.2298 -0.0387
 2216SOL    HW113647   4.535   1.393   4.328  0.4755  1.2920 -3.1923
 2216SOL    HW213648   4.693   1.353   4.321  0.2850 -0.0485 -0.6698
 2217SOL     OW13649   1.816   7.027   1.835 -0.1272 -0.1722 -0.1559
 2217SOL    HW113650   1.732   6.980   1.862 -0.3342 -0.2366 -0.8977
 2217SOL    HW213651   1.858   7.069   1.916 -0.9227 -0.0513  0.2054
 2218SOL     OW13652   4.025   0.278   3.564  0.2200  0.2632  0.2370
 2218SOL    HW113653   3.987   0.352   3.618  1.3133  1.1798 -0.2362
 2218SOL    HW213654   4.087   0.224   3.621 -0.6784 -0.3811  0.6177
 2219SOL     OW13655   3.383   6.257   1.343  0.2983 -0.9705 -0.2767
 2219SOL    HW113656   3.462   6.199   1.362  0.1563 -0.8675  0.6628
 2219SOL    HW213657   3.319   6.252   1.420  0.1146  0.1522 -0.3497
 2220SOL     OW13658   2.950   2.118   6.590  0.0166 -0.3010 -0.5112
 2220SOL    HW113659   2.857   2.085   6.570  0.3210 -0.9141 -0.9707
 2220SOL    HW213660   2.960   2.133   6.688 -0.4920 -0.4879 -0.4281
 2221SOL     OW13661   2.987   3.935   5.547 -0.0320 -0.9113 -0.8098
 2221SOL    HW113662   3.013   3.989   5.627  1.4727 -0.8131 -1.3602
 2221SOL    HW213663   2.902   3.886   5.566 -0.7836  0.7327  0.1091
 2222SOL     OW13664   3.119   1.557   2.829  0.2216  0.4170 -0.2899
 2222SOL    HW113665   3.040   1.518   2.781  1.2526 -1.0345 -0.8133
 2222SOL    HW213666   3.087   1.599   2.915 -1.3692  1.4902 -1.3694
 2223SOL     OW13667   0.527   3.669   7.158 -0.0803  0.8874 -0.4724
 2223SOL    HW113668   0.585   3.592   7.185  0.9541  0.7085 -3.0992
 2223SOL    HW213669   0.432   3.649   7.183  0.8041  0.8681  3.1909
 2224SOL     OW13670   0.904   3.427   5.995 -0.6467  0.0800 -0.0016
 2224SOL    HW113671   0.914   3.509   6.051 -1.9498  0.6707 -0.6048
 2224SOL    HW213672   0.881   3.453   5.901 -1.7485 -0.9851 -0.0412
 2225SOL     OW13673   6.278   1.362   7.077 -0.4425 -0.2987 -0.2624
 2225SOL    HW113674   6.251   1.267   7.060  0.6159 -0.4832 -0.9233
 2225SOL    HW213675   6.197   1.421   7.073 -0.9421 -1.0254 -0.8986
 2226SOL     OW13676   4.021   0.426   6.127  0.5304  0.4341 -0.2960
 2226SOL    HW113677   4.055   0.452   6.036  1.1437  0.2159 -0.1334
 2226SOL    HW213678   3.969   0.502   6.166 -3.3501 -0.9142 -2.5604
 2227SOL     OW13679   1.297   2.180   0.179  0.5437  0.3202  0.4601
 2227SOL    HW113680   1.231   2.189   0.105 -0.0828  0.7048  1.0656
 2227SOL    HW213681   1.296   2.087   0.214  0.7769  0.1609  0.0545
 2228SOL     OW13682   2.706   4.233   3.775 -0.4343 -0.0639 -0.2743
 2228SOL    HW113683   2.710   4.224   3.675  0.9292 -0.5348 -0.1832
 2228SOL    HW213684   2.744   4.151   3.817 -3.2836 -0.9681  0.6684
 2229SOL     OW13685   6.575   4.340   1.825 -0.4271  0.1636  0.4596
 2229SOL    HW113686   6.487   4.369   1.863 -0.3628  0.1798  0.5937
 2229SOL    HW213687   6.586   4.379   1.734 -0.4242  0.4057  0.5629
 2230SOL     OW13688   6.187   0.105   6.873  0.1770  0.0429 -0.8358
 2230SOL    HW113689   6.245   0.179   6.907 -0.9488  1.0946 -1.1701
 2230SOL    HW213690   6.136   0.065   6.949 -2.2454  2.3109 -1.2162
 2231SOL     OW13691   5.147   2.913   0.069 -0.6821 -0.1194  0.4243
 2231SOL    HW113692   5.225   2.927   0.009 -0.6588 -3.5955 -0.4995
 2231SOL    HW213693   5.079   2.985   0.055  1.2195  1.4922 -0.6277
 2232SOL     OW13694   5.593   3.091   6.417 -0.0077 -0.2636 -0.6226
 2232SOL    HW113695   5.634   3.107   6.327  0.9770 -0.4075 -0.2083
 2232SOL    HW213696   5.525   3.162   6.436 -2.8057 -2.1725 -2.9654
 2233SOL     OW13697   2.466   4.889   4.033  0.3550 -0.6581  0.3738
 2233SOL    HW113698   2.471   4.789   4.023 -1.5535 -0.7374  0.1389
 2233SOL    HW213699   2.384   4.923   3.988  0.8911  1.0041  0.6419
 2234SOL     OW13700   3.066   2.367   4.567 -0.3144 -0.1282 -0.5902
 2234SOL    HW113701   2.979   2.329   4.536  0.2021 -1.0060 -0.9844
 2234SOL    HW213702   3.138   2.299   4.554  0.4757  0.6940 -0.5268
 2235SOL     OW13703   2.717   6.776   1.783  0.5075 -0.0983 -0.2945
 2235SOL    HW113704   2.772   6.859   1.793  3.0865 -1.4930 -2.3031
 2235SOL    HW213705   2.776   6.696   1.795 -1.9162 -1.6615  1.4567
 2236SOL     OW13706   5.272   4.952   2.402 -0.4184 -0.7230 -0.0268
 2236SOL    HW113707   5.361   4.910   2.390  0.2746  0.9310 -0.7895
 2236SOL    HW213708   5.223   4.954   2.315 -1.2678 -1.7504  0.4155
 2237SOL     OW13709   4.131   5.943   4.958  0.4051  0.4337  0.5220
 2237SOL    HW113710   4.198   5.927   4.885  0.9785  0.5964  1.0026
 2237SOL    HW213711   4.180   5.954   5.045 -0.2635  0.3888  0.9012
 2238SOL     OW13712   4.645   0.369   3.617 -0.4618 -0.7563  0.0590
 2238SOL    HW113713   4.562   0.317   3.640 -1.4468  0.3241 -0.9271
 2238SOL    HW213714   4.670   0.428   3.694 -0.5881 -1.1336  0.3870
 2239SOL     OW13715   1.203   3.554   0.027  0.7474 -0.1348 -0.6127
 2239SOL    HW113716   1.282   3.536  -0.032  0.3303 -1.0832 -0.8993
 2239SOL    HW213717   1.119   3.535  -0.024  0.3905 -1.2196  0.3621
 2240SOL     OW13718   6.889   1.116   1.774  0.1543  0.3192  0.2873
 2240SOL    HW113719   6.813   1.098   1.713  0.7103  1.8215 -0.8959
 2240SOL    HW213720   6.860   1.178   1.847 -0.0673 -0.0699  0.5264
 2241SOL     OW13721   5.701   3.898   7.039 -0.4108 -0.5295  0.0453
 2241SOL    HW113722   5.691   3.830   6.966 -0.5606 -1.1350  0.6338
 2241SOL    HW213723   5.713   3.988   6.998 -2.0129 -0.6466 -0.7145
 2242SOL     OW13724   0.665   1.435   1.421 -0.3355 -0.3234 -0.6272
 2242SOL    HW113725   0.600   1.442   1.346 -0.9588  2.1176  0.1187
 2242SOL    HW213726   0.626   1.475   1.504  2.0284  1.0793 -0.1377
 2243SOL     OW13727   5.655   4.005   4.078 -0.6948  0.3165 -0.0584
 2243SOL    HW113728   5.648   3.938   4.152 -0.3082 -1.2786 -1.4244
 2243SOL    HW213729   5.575   3.997   4.018 -1.2267  1.9030  0.4153
 2244SOL     OW13730   7.332   1.728   4.578 -0.5372 -0.0236 -0.3072
 2244SOL    HW113731   7.422   1.767   4.559 -1.3692  2.1986  0.1675
 2244SOL    HW213732   7.290   1.776   4.655 -2.0966 -1.0925 -0.4515
 2245SOL     OW13733   4.227   6.300   0.995 -0.3362  0.8368 -0.0074
 2245SOL    HW113734   4.177   6.308   0.908  1.3204  0.7309 -1.0031
 2245SOL    HW213735   4.214   6.208   1.032  0.3053  0.3253 -1.0149
 2246SOL     OW13736   4.876   0.965   6.736 -0.4239  0.5284 -0.5053
 2246SOL    HW113737   4.857   0.951   6.638 -0.2156  0.5016 -0.5427
 2246SOL    HW213738   4.913   0.881   6.775  0.5393  0.8668 -0.6601
 2247SOL     OW13739   1.209   5.931   0.889 -0.4390  0.2693 -0.0448
 2247SOL    HW113740   1.163   5.979   0.814 -1.3829  0.6111  0.7505
 2247SOL    HW213741   1.300   5.970   0.902  0.1046 -0.4176 -1.6334
 2248SOL     OW13742   5.423   4.088   6.847 -0.1673  0.2980  0.3796
 2248SOL    HW113743   5.373   4.140   6.777  0.3302 -0.4399 -0.5275
 2248SOL    HW213744   5.520   4.112   6.844 -0.4233  1.7112  2.1265
 2249SOL     OW13745   0.321   1.588   3.164  0.3990  0.1745  0.1954
 2249SOL    HW113746   0.404   1.575   3.217  0.7684  1.6494  0.0117
 2249SOL    HW213747   0.335   1.554   3.071  0.8843  0.6226  0.0998
 2250SOL     OW13748   0.571   5.037   1.316  0.1486  0.0555 -0.3774
 2250SOL    HW113749   0.551   5.132   1.343  1.0166  0.1357  0.0173
 2250SOL    HW213750   0.496   4.978   1.344  1.0434  0.1269  2.3562
 2251SOL     OW13751   0.837   4.340   5.568  0.0963  0.0811 -0.4866
 2251SOL    HW113752   0.776   4.412   5.536  2.4088  2.5436  0.4311
 2251SOL    HW213753   0.847   4.345   5.667  2.8748  0.7321 -0.7343
 2252SOL     OW13754   0.455   1.410   1.225 -0.3447 -0.4021  0.4997
 2252SOL    HW113755   0.392   1.344   1.186  0.6072 -2.2650  2.0039
 2252SOL    HW213756   0.533   1.422   1.164 -1.2514  0.5266 -0.4989
 2253SOL     OW13757   4.402   1.674   6.639  0.2493 -0.2783 -0.1928
 2253SOL    HW113758   4.455   1.736   6.697  0.8588  0.1802 -1.2383
 2253SOL    HW213759   4.423   1.579   6.663  1.2270 -0.0940 -0.3252
 2254SOL     OW13760   2.258   4.774   0.586  0.1955 -0.6216 -0.6923
 2254SOL    HW113761   2.222   4.695   0.634 -0.6263 -1.9938 -3.4563
 2254SOL    HW213762   2.355   4.760   0.567  0.5473 -0.0296  0.6108
 2255SOL     OW13763   5.694   4.782   0.913 -0.3479  0.0733  0.9544
 2255SOL    HW113764   5.631   4.852   0.881 -1.5963 -0.2981  2.5616
 2255SOL    HW213765   5.749   4.819   0.988 -0.1820 -0.3009  1.0175
 2256SOL     OW13766   6.685   6.982   6.525  0.7225 -0.0698 -0.0331
 2256SOL    HW113767   6.677   6.883   6.515  0.6273 -0.0753  0.1001
 2256SOL    HW213768   6.779   7.005   6.550  0.9757 -0.0470 -1.0159
 2257SOL     OW13769   0.749   2.317   0.045  0.5432  0.2523 -0.0541
 2257SOL    HW113770   0.834   2.274   0.077  0.9231  0.3265 -0.9619
 2257SOL    HW213771   0.713   2.376   0.117  0.0339 -1.5471  1.2043
 2258SOL     OW13772   5.729   4.260   6.468  0.3231 -0.3395  0.1951
 2258SOL    HW113773   5.656   4.202   6.504  1.5433 -1.8827  0.2220
 2258SOL    HW213774   5.704   4.356   6.479 -1.2470 -0.8452  1.1261
 2259SOL     OW13775   0.509   7.023   6.997 -0.7534  0.4404  0.5339
 2259SOL    HW113776   0.531   7.087   7.070  0.1846 -1.5202  2.0135
 2259SOL    HW213777   0.410   7.008   6.995 -0.6800 -0.3478  2.1505
 2260SOL     OW13778   5.727   4.173   2.591  0.0960  0.4457 -0.5919
 2260SOL    HW113779   5.703   4.155   2.496 -3.6799  1.2643  0.1246
 2260SOL    HW213780   5.670   4.117   2.651  1.7603  0.6447  1.2179
 2261SOL     OW13781   5.879   1.433   1.946  0.3810 -0.5634  0.3881
 2261SOL    HW113782   5.888   1.532   1.962  0.5934 -0.3548 -0.9617
 2261SOL    HW213783   5.811   1.418   1.874  1.0594 -1.3489 -0.0938
 2262SOL     OW13784   5.088   2.766   2.775  0.3013 -0.4243  0.2206
 2262SOL    HW113785   5.100   2.667   2.770  0.2223 -0.4532  0.5603
 2262SOL    HW213786   5.120   2.799   2.864 -0.4368 -0.2643  0.4356
 2263SOL     OW13787   2.567   5.278   3.351  0.2890 -0.0451  0.1884
 2263SOL    HW113788   2.491   5.259   3.289 -0.2956  1.6323  0.3725
 2263SOL    HW213789   2.650   5.233   3.317  0.1844  1.5288 -2.2856
 2264SOL     OW13790   4.400   6.064   4.603  0.2721  0.2850  0.1551
 2264SOL    HW113791   4.481   6.013   4.630  0.5245 -0.9038 -2.7555
 2264SOL    HW213792   4.318   6.008   4.619  0.3998 -0.3107 -1.2481
 2265SOL     OW13793   3.685   1.812   6.788  0.2246  0.2261 -0.0280
 2265SOL    HW113794   3.662   1.762   6.871  0.1429  1.3105  0.6067
 2265SOL    HW213795   3.694   1.747   6.712  0.7083 -0.8163  0.8977
 2266SOL     OW13796   4.441   0.318   2.975 -0.1760 -0.6115  0.4852
 2266SOL    HW113797   4.536   0.314   2.942  0.4358 -0.7210  2.2022
 2266SOL    HW213798   4.400   0.405   2.949  0.4737 -0.4690 -0.0712
 2267SOL     OW13799   4.711   5.485   1.551 -0.1041 -0.8131 -0.0564
 2267SOL    HW113800   4.772   5.406   1.543  0.7908 -0.0442 -1.0843
 2267SOL    HW213801   4.621   5.461   1.516  0.0382 -1.5133  0.0397
 2268SOL     OW13802   4.630   0.618   1.394  0.6726  0.1892 -0.2803
 2268SOL    HW113803   4.649   0.687   1.464  3.0216  1.1212 -1.7614
 2268SOL    HW213804   4.612   0.663   1.307 -2.8655 -0.9342 -0.2082
 2269SOL     OW13805   5.773   4.230   4.184 -0.0905 -0.3785  0.1391
 2269SOL    HW113806   5.692   4.281   4.212  0.5974  0.1556  1.2126
 2269SOL    HW213807   5.746   4.142   4.144 -1.1684 -0.4465  1.0093
 2270SOL     OW13808   3.545   3.756   3.005  0.1053  0.2257  0.3234
 2270SOL    HW113809   3.641   3.738   2.981  0.8162 -0.4786  3.4197
 2270SOL    HW213810   3.521   3.849   2.979  2.3188  1.1354  1.3991
 2271SOL     OW13811   1.729   4.805   2.212 -0.0308 -0.2192 -0.1306
 2271SOL    HW113812   1.727   4.744   2.291  0.3477 -1.6153 -1.1745
 2271SOL    HW213813   1.655   4.781   2.149 -0.0637  0.5983 -0.4157
 2272SOL     OW13814   0.239   4.443   5.667  0.1411 -0.1299 -0.1377
 2272SOL    HW113815   0.147   4.447   5.629  0.6576  0.0202 -1.3913
 2272SOL    HW213816   0.291   4.370   5.623  0.9225  0.3936 -0.1068
 2273SOL     OW13817   2.329   0.503   6.800  0.6061  0.1749  0.0616
 2273SOL    HW113818   2.288   0.440   6.733 -1.3929  0.5120  0.9223
 2273SOL    HW213819   2.356   0.451   6.881 -2.3427  0.5362  1.3615
 2274SOL     OW13820   3.131   0.249   5.315  0.1916  0.0579  0.3105
 2274SOL    HW113821   3.158   0.153   5.307  0.6577  0.1339  0.9237
 2274SOL    HW213822   3.205   0.301   5.358  0.2709  0.8495 -0.7591
 2275SOL     OW13823   5.922   6.856   0.080 -0.3274  0.2902  0.2777
 2275SOL    HW113824   5.874   6.793   0.019 -0.5071  0.8791 -0.1845
 2275SOL    HW213825   5.963   6.804   0.155  0.2308 -0.4876 -0.5607
 2276SOL     OW13826   6.421   0.193   6.187 -0.0659  0.2852 -0.0857
 2276SOL    HW113827   6.387   0.124   6.124 -0.1178 -0.1593  0.4168
 2276SOL    HW213828   6.411   0.159   6.281  0.6468  0.6406  0.1232
 2277SOL     OW13829   2.503   4.603   3.984 -0.0460 -0.1933  0.0325
 2277SOL    HW113830   2.595   4.565   3.985 -0.6562 -1.6927  2.1260
 2277SOL    HW213831   2.464   4.594   3.892  1.2253 -1.2123 -0.4221
 2278SOL     OW13832   1.587   6.959   6.792  0.5240  0.3259  0.0866
 2278SOL    HW113833   1.635   6.890   6.847  0.1599  0.0295  0.0326
 2278SOL    HW213834   1.570   7.039   6.849  1.3899  0.5720  0.0083
 2279SOL     OW13835   0.580   5.215   0.586 -0.0890 -0.1289 -0.1619
 2279SOL    HW113836   0.661   5.195   0.530  0.7379  0.7183  0.6891
 2279SOL    HW213837   0.501   5.227   0.527  0.6633  0.2329 -1.1169
 2280SOL     OW13838   1.397   3.804   5.431  0.5174  0.0687  0.3685
 2280SOL    HW113839   1.358   3.886   5.471 -1.5620 -0.8086  0.1893
 2280SOL    HW213840   1.389   3.807   5.331 -0.0716 -0.5865  0.3898
 2281SOL     OW13841   3.870   4.914   7.235 -0.7559 -0.2132 -0.2832
 2281SOL    HW113842   3.810   4.840   7.266 -0.7132 -0.4546 -0.7593
 2281SOL    HW213843   3.952   4.874   7.193 -0.6336  0.1086 -0.3491
 2282SOL     OW13844   3.619   1.505   0.138  0.3919 -0.1121 -0.3068
 2282SOL    HW113845   3.536   1.519   0.084  0.3306 -1.7619 -0.6500
 2282SOL    HW213846   3.629   1.580   0.204 -2.1528 -0.6413  0.7379
 2283SOL     OW13847   3.892   0.912   1.193 -0.3707  0.2485 -0.1868
 2283SOL    HW113848   3.796   0.886   1.200 -0.2130 -0.8165 -1.7938
 2283SOL    HW213849   3.947   0.833   1.166  1.4972 -0.0796  4.1523
 2284SOL     OW13850   0.376   4.558   1.724  0.2675 -0.4486 -0.2764
 2284SOL    HW113851   0.457   4.513   1.761 -0.8781 -1.6213  0.8643
 2284SOL    HW213852   0.326   4.493   1.666 -2.4144 -1.3264  2.8960
 2285SOL     OW13853   5.290   1.035   3.564 -0.7151 -0.1496  0.3761
 2285SOL    HW113854   5.285   0.939   3.592 -0.0602 -0.3121 -0.0651
 2285SOL    HW213855   5.199   1.066   3.536 -1.3851 -0.0170  2.5569
 2286SOL     OW13856   4.253   0.214   1.455 -0.0441  0.4228 -0.3263
 2286SOL    HW113857   4.253   0.183   1.551  0.2434  0.9875 -0.1449
 2286SOL    HW213858   4.289   0.307   1.450  0.9721 -0.0115 -1.1158
 2287SOL     OW13859   3.192   3.427   7.187 -0.4028 -0.4732 -0.3930
 2287SOL    HW113860   3.284   3.459   7.163 -0.2790 -1.4310 -1.2633
 2287SOL    HW213861   3.176   3.441   7.285  0.5429  0.0138 -0.3012
 2288SOL     OW13862   5.990   2.170   1.717 -0.1841 -0.7226 -0.2633
 2288SOL    HW113863   5.931   2.250   1.731 -1.4839 -1.5628 -0.9037
 2288SOL    HW213864   6.050   2.186   1.639  1.0591  0.4720  0.8938
 2289SOL     OW13865   5.427   0.471   3.632 -0.0291  0.2498  0.3114
 2289SOL    HW113866   5.331   0.492   3.647  0.3207  1.2285  1.3003
 2289SOL    HW213867   5.447   0.474   3.533 -0.4895  2.5363  0.2418
 2290SOL     OW13868   5.945   6.374   6.320 -0.4235  0.4647 -0.1981
 2290SOL    HW113869   6.008   6.325   6.261 -1.7004 -0.2038 -1.0341
 2290SOL    HW213870   5.865   6.403   6.267  0.4832  3.8768  0.1383
 2291SOL     OW13871   0.713   3.887   7.260  0.3220  0.3893 -0.4324
 2291SOL    HW113872   0.642   3.820   7.240  0.5190  0.2155 -0.5537
 2291SOL    HW213873   0.672   3.968   7.303  0.3890 -0.7972  1.9554
 2292SOL     OW13874   7.012   2.240   0.626 -0.1863  0.0789  0.4048
 2292SOL    HW113875   7.029   2.186   0.543 -2.0644 -0.8378  0.5720
 2292SOL    HW213876   6.970   2.327   0.601  0.9698  0.6129  0.2801
 2293SOL     OW13877   4.123   4.348   0.702 -0.6418 -0.0704  0.4236
 2293SOL    HW113878   4.134   4.272   0.765  0.4012 -0.4254 -0.1725
 2293SOL    HW213879   4.063   4.321   0.627 -0.4830 -0.2191  0.3503
 2294SOL     OW13880   5.311   3.130   4.041 -0.2270  0.3548 -0.1300
 2294SOL    HW113881   5.232   3.073   4.018 -0.4736  0.6683 -0.0770
 2294SOL    HW213882   5.392   3.097   3.993  0.0361 -1.1471  1.2829
 2295SOL     OW13883   3.280   2.377   1.547 -1.1857 -0.0657  0.2350
 2295SOL    HW113884   3.238   2.327   1.623 -2.1211 -0.1752 -0.3455
 2295SOL    HW213885   3.225   2.364   1.464  0.1790 -0.4971 -0.6293
 2296SOL     OW13886   4.455   5.191   7.013 -0.2676  0.3841  0.3800
 2296SOL    HW113887   4.551   5.215   7.003 -0.2370 -0.1735 -0.8593
 2296SOL    HW213888   4.412   5.250   7.082  0.9607  0.6074  0.9581
 2297SOL     OW13889   4.539   4.778   6.667  0.0820 -0.0198 -0.4065
 2297SOL    HW113890   4.542   4.732   6.756  2.8124 -1.1645 -1.0510
 2297SOL    HW213891   4.621   4.835   6.657 -0.1382 -0.0131 -2.2419
 2298SOL     OW13892   6.472   6.511   4.149 -0.0951  0.2391  0.0980
 2298SOL    HW113893   6.482   6.413   4.166 -0.2046  0.4709  1.5352
 2298SOL    HW213894   6.491   6.561   4.233  0.7110  1.5062 -0.8224
 2299SOL     OW13895   2.998   5.535   0.022 -0.2401  0.3567  0.4295
 2299SOL    HW113896   3.014   5.629  -0.006  1.6880 -0.1882 -0.3399
 2299SOL    HW213897   2.993   5.475  -0.058 -0.1317 -0.3968  0.9709
 2300SOL     OW13898   0.563   1.759   3.654  0.3415 -0.5384  0.0067
 2300SOL    HW113899   0.659   1.775   3.627  0.1829  1.3186  0.4888
 2300SOL    HW213900   0.509   1.738   3.573  0.7809  0.3949 -0.5384
 2301SOL     OW13901   2.051   3.519   5.033  0.0187  0.7158 -0.5192
 2301SOL    HW113902   2.121   3.524   5.104 -0.5072  2.3390 -0.0862
 2301SOL    HW213903   2.066   3.592   4.967  0.6701 -0.9542 -2.2486
 2302SOL     OW13904   3.676   3.633   6.044 -0.2799  0.5278 -0.6432
 2302SOL    HW113905   3.599   3.579   6.009 -1.6815  2.7755 -1.1894
 2302SOL    HW213906   3.761   3.585   6.027 -1.3963 -1.0087 -2.0519
 2303SOL     OW13907   5.993   4.893   4.129  0.0026 -0.3366  0.6352
 2303SOL    HW113908   6.068   4.954   4.153  0.1662  0.1029 -0.9742
 2303SOL    HW213909   6.010   4.803   4.170  2.0304 -0.5919 -0.6998
 2304SOL     OW13910   0.202   3.557   0.665  0.3300  0.5559  0.4818
 2304SOL    HW113911   0.163   3.640   0.704  2.4429  0.9162  1.9430
 2304SOL    HW213912   0.226   3.494   0.739  0.5511 -0.5266 -0.5062
 2305SOL     OW13913   0.361   2.397   0.016  0.2608 -0.5583 -0.1492
 2305SOL    HW113914   0.262   2.381   0.025  0.3137 -1.1520 -0.5622
 2305SOL    HW213915   0.377   2.489  -0.019 -0.1172 -0.1519  0.7339
 2306SOL     OW13916   2.785   3.218   2.141 -0.0523 -0.1657 -0.3164
 2306SOL    HW113917   2.853   3.152   2.108  0.5780 -0.4540  1.4792
 2306SOL    HW213918   2.694   3.176   2.141  0.6001 -1.7397  2.5732
 2307SOL     OW13919   0.515   7.276   7.138 -0.2762  0.4593 -0.6488
 2307SOL    HW113920   0.557   7.219   7.208 -1.9548 -0.1322 -0.0993
 2307SOL    HW213921   0.584   7.303   7.071  1.1358  0.1897  0.6664
 2308SOL     OW13922   0.604   4.540   5.505 -0.0340 -0.0095  0.4112
 2308SOL    HW113923   0.557   4.620   5.544 -1.7098 -0.4078 -0.7194
 2308SOL    HW213924   0.547   4.501   5.432  1.5159 -1.2698 -0.1375
 2309SOL     OW13925   5.102   2.931   4.032 -0.2013 -0.5398  0.0767
 2309SOL    HW113926   5.027   2.917   3.968 -2.4803  1.9190  2.0971
 2309SOL    HW213927   5.066   2.942   4.125  2.7771 -0.9099  1.3402
 2310SOL     OW13928   6.117   2.188   0.106  0.3751 -0.0249  0.5502
 2310SOL    HW113929   6.077   2.274   0.076 -0.6300 -0.8396 -0.5392
 2310SOL    HW213930   6.214   2.187   0.083  0.2058  0.4779 -0.2352
 2311SOL     OW13931   5.391   2.289   1.497  0.1952  0.5113 -0.3207
 2311SOL    HW113932   5.468   2.228   1.478  0.0886  0.4110 -0.4278
 2311SOL    HW213933   5.408   2.337   1.583 -1.4865 -2.5338  1.8106
 2312SOL     OW13934   3.678   0.607   6.082  0.3192 -0.0679  0.2110
 2312SOL    HW113935   3.715   0.537   6.021  0.8210  0.1845  0.2245
 2312SOL    HW213936   3.629   0.675   6.029 -1.5853 -1.2904  0.3425
 2313SOL     OW13937   2.059   1.262   1.416 -0.4424  0.0514  0.2208
 2313SOL    HW113938   2.005   1.332   1.369 -1.3039 -0.4500  0.4516
 2313SOL    HW213939   2.024   1.171   1.391  2.5031 -0.4338 -2.3583
 2314SOL     OW13940   3.852   5.738   5.232 -0.6112 -0.2799  0.0937
 2314SOL    HW113941   3.909   5.683   5.172  1.0704 -0.0140  1.4076
 2314SOL    HW213942   3.896   5.746   5.322 -2.1012  1.0039  0.7346
 2315SOL     OW13943   2.224   4.269   4.536  0.3333  0.8161  0.4357
 2315SOL    HW113944   2.157   4.206   4.576  2.2423 -0.9647  0.9352
 2315SOL    HW213945   2.195   4.363   4.552 -3.2657  0.1182 -1.4840
 2316SOL     OW13946   0.308   6.252   6.246 -0.0750  0.1088  0.0708
 2316SOL    HW113947   0.380   6.253   6.177 -0.6410  0.1616 -0.5332
 2316SOL    HW213948   0.286   6.346   6.272  0.9585  0.0500  1.2095
 2317SOL     OW13949   2.260   6.771   6.620 -0.9379 -0.0509  0.1044
 2317SOL    HW113950   2.356   6.753   6.602 -0.8970  0.4271 -0.1471
 2317SOL    HW213951   2.209   6.771   6.533 -1.2748 -0.9672  0.2973
 2318SOL     OW13952   4.832   5.790   3.811  0.5200  0.2868  0.2346
 2318SOL    HW113953   4.839   5.803   3.910 -1.8232 -3.2985  0.9869
 2318SOL    HW213954   4.739   5.762   3.788  1.0551  0.9899 -3.0075
 2319SOL     OW13955   1.219   6.025   5.154  0.0103 -0.2753 -0.0855
 2319SOL    HW113956   1.217   5.944   5.095 -0.1957 -0.7181  0.5190
 2319SOL    HW213957   1.135   6.078   5.140 -0.2869 -0.6698  0.2093
 2320SOL     OW13958   3.150   1.511   6.110 -0.2374 -0.0639 -0.4027
 2320SOL    HW113959   3.077   1.504   6.043 -0.2177  1.7242 -0.6249
 2320SOL    HW213960   3.160   1.606   6.140  1.5190 -0.3954  0.1526
 2321SOL     OW13961   2.039   4.526   4.625 -0.4461 -0.0522 -1.1662
 2321SOL    HW113962   2.030   4.561   4.718 -0.0499  0.6707 -1.3929
 2321SOL    HW213963   2.120   4.567   4.582 -1.9360  1.4117 -2.6314
 2322SOL     OW13964   3.003   1.344   7.141  0.2593 -0.0698 -0.5514
 2322SOL    HW113965   2.923   1.336   7.081  1.2081  1.9561 -2.1796
 2322SOL    HW213966   3.084   1.312   7.092  0.8013  0.1150  0.2230
 2323SOL     OW13967   4.857   7.129   3.303 -0.3702 -0.1836 -0.1620
 2323SOL    HW113968   4.919   7.112   3.227 -1.9102 -1.6768 -1.0944
 2323SOL    HW213969   4.767   7.156   3.269 -0.5106  1.1624  1.1733
 2324SOL     OW13970   2.478   2.208   3.186 -0.6138 -0.2720 -0.4663
 2324SOL    HW113971   2.483   2.308   3.190  0.4467 -0.2678 -1.5724
 2324SOL    HW213972   2.384   2.180   3.170 -1.0053  0.5235  0.3918
 2325SOL     OW13973   1.989   3.457   4.607 -0.0642 -0.0365 -0.5008
 2325SOL    HW113974   2.027   3.539   4.566 -1.0798  0.9319  0.4551
 2325SOL    HW213975   1.941   3.403   4.537 -0.2272  0.6748 -0.9414
 2326SOL     OW13976   4.269   4.000   0.713 -0.0303  0.0200 -0.5591
 2326SOL    HW113977   4.349   4.039   0.668 -0.1080  1.2269  0.3394
 2326SOL    HW213978   4.209   3.959   0.645 -0.0696  1.6733 -1.5185
 2327SOL     OW13979   4.594   5.464   4.894  0.2682 -0.1628  0.3587
 2327SOL    HW113980   4.677   5.410   4.909  0.0854 -0.9841 -1.4501
 2327SOL    HW213981   4.521   5.429   4.954  0.2392 -1.7496 -0.5633
 2328SOL     OW13982   3.925   1.305   6.118  0.3670 -0.3432  0.1322
 2328SOL    HW113983   3.884   1.383   6.072 -1.9437 -1.5987 -0.0151
 2328SOL    HW213984   4.024   1.319   6.125  0.4314  1.1287 -2.7436
 2329SOL     OW13985   0.151   6.040   6.665 -0.1907  0.4329  0.4426
 2329SOL    HW113986   0.160   6.084   6.754 -2.6945  0.9040  0.5004
 2329SOL    HW213987   0.178   6.103   6.593  1.3355  0.2282  0.8198
 2330SOL     OW13988   3.669   5.820   0.286  0.4092 -0.3586 -0.1045
 2330SOL    HW113989   3.768   5.809   0.291  0.4213  0.3320  1.4428
 2330SOL    HW213990   3.624   5.746   0.337  0.1402 -0.3016 -0.2546
 2331SOL     OW13991   4.091   6.782   6.955 -0.0452 -0.5028  0.1343
 2331SOL    HW113992   4.172   6.774   6.897 -1.0430 -0.8272 -1.2230
 2331SOL    HW213993   4.043   6.695   6.957 -0.5817 -0.1955  0.6228
 2332SOL     OW13994   5.891   1.132   0.882  0.4814 -0.2291  0.0982
 2332SOL    HW113995   5.913   1.048   0.931  0.1053  0.8021  2.0730
 2332SOL    HW213996   5.974   1.184   0.865  0.5101 -0.1320  0.5193
 2333SOL     OW13997   1.512   2.169   1.558  0.5250  0.3893 -0.2112
 2333SOL    HW113998   1.582   2.186   1.628 -0.6480 -1.5651  1.4710
 2333SOL    HW213999   1.436   2.232   1.572  0.6396  0.5289 -0.2147
 2334SOL     OW14000   0.752   4.014   6.736 -0.2801  0.1776 -0.3132
 2334SOL    HW114001   0.825   4.003   6.802 -1.7743 -1.5802  1.1076
 2334SOL    HW214002   0.771   3.957   6.656  0.4002  0.5305 -0.4083
 2335SOL     OW14003   4.576   3.191   2.759  0.1779 -0.1016  0.2481
 2335SOL    HW114004   4.501   3.235   2.709 -0.4045  0.3112  1.4594
 2335SOL    HW214005   4.581   3.229   2.851 -0.9437 -3.1961  1.6576
 2336SOL     OW14006   6.252   0.111   3.653  0.2048 -1.0104  0.2882
 2336SOL    HW114007   6.192   0.063   3.717 -2.5481  0.6750 -0.9336
 2336SOL    HW214008   6.268   0.054   3.573 -1.7949 -0.5696 -0.4619
 2337SOL     OW14009   5.821   5.205   4.607 -0.0771 -0.2041  0.0364
 2337SOL    HW114010   5.781   5.282   4.658  0.4832  0.4273 -0.4655
 2337SOL    HW214011   5.768   5.188   4.524 -0.6010 -0.8040  0.4927
 2338SOL     OW14012   0.931   1.669   3.319  0.0269  0.2164 -0.2548
 2338SOL    HW114013   0.915   1.573   3.293 -1.8266  0.2406  0.7167
 2338SOL    HW214014   0.861   1.727   3.277  0.5751  1.0210 -0.0595
 2339SOL     OW14015   5.185   3.316   5.249 -0.3198  0.1133 -0.3781
 2339SOL    HW114016   5.240   3.392   5.215  2.0802 -1.2590  0.2621
 2339SOL    HW214017   5.181   3.244   5.179 -2.0227  0.5362 -0.7346
 2340SOL     OW14018   0.343   1.689   3.770 -0.2873  0.4359  0.1754
 2340SOL    HW114019   0.328   1.596   3.737 -1.2934  0.8839 -0.6679
 2340SOL    HW214020   0.425   1.726   3.727  1.7412 -1.0430  2.6705
 2341SOL     OW14021   2.891   5.591   6.622 -0.2756  0.0836 -0.0203
 2341SOL    HW114022   2.878   5.536   6.705 -1.9801  0.2375 -0.1694
 2341SOL    HW214023   2.949   5.541   6.558  1.0273 -0.0581  1.2291
 2342SOL     OW14024   2.321   6.995   6.260 -0.1015  0.4503  0.3410
 2342SOL    HW114025   2.301   7.093   6.256  0.2813  0.4863 -0.9298
 2342SOL    HW214026   2.394   6.974   6.195 -0.4003 -0.7351  0.3846
 2343SOL     OW14027   0.620   0.352   3.318  0.2238  0.4091  0.4301
 2343SOL    HW114028   0.634   0.433   3.261  1.2016 -0.3372 -0.4264
 2343SOL    HW214029   0.686   0.352   3.393 -0.2015  0.7260  0.8083
 2344SOL     OW14030   6.209   0.484   7.182 -0.1825 -0.0522  0.5117
 2344SOL    HW114031   6.298   0.453   7.213  0.3901  0.3397 -0.6868
 2344SOL    HW214032   6.144   0.481   7.258  1.1151  0.6924  1.6816
 2345SOL     OW14033   6.408   2.608   5.917 -0.1953 -0.2934 -0.1532
 2345SOL    HW114034   6.340   2.681   5.910 -0.0869 -0.2506 -0.8061
 2345SOL    HW214035   6.454   2.614   6.005  0.9066  1.4182 -0.8168
 2346SOL     OW14036   5.408   4.867   0.136  0.1171 -0.1732 -0.6450
 2346SOL    HW114037   5.433   4.814   0.217  0.1686 -0.0379 -0.5711
 2346SOL    HW214038   5.491   4.890   0.085  0.2285  0.9020 -0.0115
 2347SOL     OW14039   2.773   6.761   7.213  0.4568 -0.3932  0.9018
 2347SOL    HW114040   2.684   6.784   7.172  0.6089  0.3259  0.9670
 2347SOL    HW214041   2.829   6.713   7.145  0.7651  0.9328  0.2082
 2348SOL     OW14042   2.045   2.024   5.447  0.0377 -0.2443 -0.3150
 2348SOL    HW114043   1.951   2.058   5.453  0.4955  1.0345 -0.2811
 2348SOL    HW214044   2.049   1.930   5.480 -1.5096 -0.8419 -1.7394
 2349SOL     OW14045   2.987   6.634   7.040  0.3227 -0.3982 -0.3507
 2349SOL    HW114046   3.045   6.663   7.116  1.3994 -1.9757 -0.5254
 2349SOL    HW214047   3.009   6.539   7.016 -1.7412 -0.7420 -1.0023
 2350SOL     OW14048   0.153   1.320   3.372 -0.3928  0.0415 -0.1542
 2350SOL    HW114049   0.137   1.328   3.274 -1.2922 -0.0316 -0.0202
 2350SOL    HW214050   0.066   1.327   3.421  0.1187  0.6731  0.6809
 2351SOL     OW14051   2.947   2.576   0.714 -0.1843 -0.1161 -0.0257
 2351SOL    HW114052   2.978   2.616   0.627  1.7262 -1.2429  0.1001
 2351SOL    HW214053   2.991   2.624   0.790  1.0080 -1.4773  0.1731
 2352SOL     OW14054   5.861   2.561   2.314  0.8972 -0.0159  0.1793
 2352SOL    HW114055   5.868   2.661   2.308 -0.1464  0.0527 -0.0123
 2352SOL    HW214056   5.879   2.532   2.408 -0.4086  0.4998  0.5934
 2353SOL     OW14057   4.287   3.950   2.062 -0.3320  0.1993  0.0302
 2353SOL    HW114058   4.246   3.863   2.037  0.9342 -1.2244  2.6763
 2353SOL    HW214059   4.215   4.019   2.074 -1.6322 -1.2884  0.9646
 2354SOL     OW14060   1.511   2.664   5.145  0.5209  0.3662  0.9196
 2354SOL    HW114061   1.434   2.727   5.140  2.2623  2.4976 -0.2443
 2354SOL    HW214062   1.579   2.700   5.210  0.1185 -1.9995  2.7288
 2355SOL     OW14063   4.840   5.781   6.165  0.4781 -0.6725 -0.5008
 2355SOL    HW114064   4.792   5.800   6.251  1.8705 -1.2451  0.4156
 2355SOL    HW214065   4.814   5.850   6.097  0.0919  0.3460  0.6550
 2356SOL     OW14066   5.624   4.208   3.412 -0.2384  1.0912 -0.4564
 2356SOL    HW114067   5.576   4.281   3.362  0.2036  1.4430 -0.3717
 2356SOL    HW214068   5.689   4.249   3.477 -2.3707  0.6761  1.9994
 2357SOL     OW14069   0.948   0.799   6.521 -0.4053 -0.7785 -0.0038
 2357SOL    HW114070   0.875   0.759   6.576  0.2109 -1.8927  0.0282
 2357SOL    HW214071   0.943   0.764   6.428 -0.0910 -0.6335 -0.0768
 2358SOL     OW14072   3.556   4.926   3.182  0.3398  0.1220  0.0719
 2358SOL    HW114073   3.580   4.960   3.273  0.4757  0.0373  0.0686
 2358SOL    HW214074   3.517   5.000   3.128 -2.0218 -0.4023  1.0094
 2359SOL     OW14075   1.931   4.992   4.566 -0.0577  0.6509  0.5980
 2359SOL    HW114076   1.855   4.945   4.611 -0.5136 -0.1813 -1.0178
 2359SOL    HW214077   1.998   4.924   4.535 -0.1457  1.1607 -0.7108
 2360SOL     OW14078   0.790   0.015   7.005 -0.0543  0.2412 -0.0808
 2360SOL    HW114079   0.802   0.038   6.908  2.8704  0.2555  0.2284
 2360SOL    HW214080   0.812  -0.081   7.020  1.9500  0.8113  0.9097
 2361SOL     OW14081   5.127   1.757   1.359 -0.2580 -0.7417 -0.0823
 2361SOL    HW114082   5.114   1.732   1.455  0.9920 -1.9240 -0.2092
 2361SOL    HW214083   5.123   1.856   1.349  2.1327 -0.4410  1.6006
 2362SOL     OW14084   5.508   0.511   2.717  0.0108 -0.3790 -0.4398
 2362SOL    HW114085   5.534   0.603   2.686 -1.7490  0.1531 -0.4127
 2362SOL    HW214086   5.430   0.479   2.663  1.3105 -2.3425 -1.1994
 2363SOL     OW14087   4.056   3.953   7.343  0.3221  0.1964 -0.4857
 2363SOL    HW114088   4.130   4.020   7.336 -0.9855  1.9265  1.5274
 2363SOL    HW214089   4.088   3.873   7.394  1.4665 -0.0814 -1.6257
 2364SOL     OW14090   6.364   4.192   0.585  0.0447  0.1235 -0.1172
 2364SOL    HW114091   6.437   4.124   0.576 -0.0470 -0.1150  0.9603
 2364SOL    HW214092   6.364   4.229   0.677 -0.6755  0.7248 -0.3582
 2365SOL     OW14093   2.060   3.600   7.226 -0.0781  0.3075  0.5837
 2365SOL    HW114094   2.079   3.503   7.208  2.3682  1.1918 -2.0235
 2365SOL    HW214095   2.143   3.643   7.263 -0.2313  2.0094 -0.9900
 2366SOL     OW14096   0.566   0.160   0.697  0.0054  0.1528 -0.0171
 2366SOL    HW114097   0.560   0.259   0.680 -2.9572 -0.4573 -3.0436
 2366SOL    HW214098   0.490   0.133   0.756 -0.0802 -0.5665 -0.4597
 2367SOL     OW14099   5.352   7.206   0.507 -0.0766 -0.1757 -0.3125
 2367SOL    HW114100   5.437   7.164   0.476 -0.1717  0.4671 -1.4529
 2367SOL    HW214101   5.330   7.284   0.449 -0.8869  0.3083  0.6414
 2368SOL     OW14102   2.528   3.562   4.524 -0.0630 -0.5167  0.1623
 2368SOL    HW114103   2.598   3.500   4.489  0.4741  0.4568 -0.5084
 2368SOL    HW214104   2.558   3.602   4.610  0.2856  0.0393 -0.2168
 2369SOL     OW14105   6.625   4.137   1.054 -0.4357 -0.0790  0.4815
 2369SOL    HW114106   6.713   4.157   1.011  0.4974  1.7920  3.1221
 2369SOL    HW214107   6.629   4.045   1.094  0.9309  0.5586  1.9046
 2370SOL     OW14108   1.049   0.914   0.765 -0.1026  0.4315  0.0988
 2370SOL    HW114109   1.018   1.008   0.756  1.6626  0.9563 -0.8236
 2370SOL    HW214110   0.972   0.852   0.752 -1.5205  1.7518  1.9745
 2371SOL     OW14111   2.118   4.757   7.056 -0.0361  0.2840 -0.1350
 2371SOL    HW114112   2.084   4.801   6.974 -1.3292 -0.8532 -0.2203
 2371SOL    HW214113   2.217   4.743   7.048  0.2429  2.3123 -0.4808
 2372SOL     OW14114   6.663   3.437   4.760  0.0180 -0.1084  0.1509
 2372SOL    HW114115   6.709   3.526   4.763  0.7391 -0.5146  1.8053
 2372SOL    HW214116   6.608   3.431   4.677 -0.7438  2.2340  0.4354
 2373SOL     OW14117   1.550   2.495   2.497 -0.1047  0.0240  0.3616
 2373SOL    HW114118   1.577   2.565   2.431  0.1656 -0.4605 -0.0554
 2373SOL    HW214119   1.533   2.536   2.586 -1.9967  0.9187 -0.3814
 2374SOL     OW14120   0.948   3.668   2.163  0.2717  0.2885 -0.0859
 2374SOL    HW114121   1.028   3.611   2.184 -0.1570  0.0222  0.8803
 2374SOL    HW214122   0.937   3.736   2.236  0.9387  1.7870 -1.3605
 2375SOL     OW14123   5.959   3.201   1.204  0.5494 -0.2919 -0.2870
 2375SOL    HW114124   5.880   3.251   1.240  0.4334  0.9882 -2.2400
 2375SOL    HW214125   6.034   3.204   1.270 -0.0020  1.1127  0.2810
 2376SOL     OW14126   4.787   0.732   5.228  0.0933  0.1209 -0.5359
 2376SOL    HW114127   4.730   0.655   5.257  0.1308  0.4468  0.4374
 2376SOL    HW214128   4.844   0.761   5.305 -0.3059  1.4676 -0.7426
 2377SOL     OW14129   4.440   0.484   2.048  0.0627  0.6690  0.7431
 2377SOL    HW114130   4.387   0.514   2.127  0.2709  2.5904  0.1967
 2377SOL    HW214131   4.526   0.443   2.078 -0.7267 -0.4016  1.5603
 2378SOL     OW14132   3.535   4.076   2.991  0.4503  0.1629 -0.2731
 2378SOL    HW114133   3.436   4.059   2.994  0.8872 -2.3431  0.4649
 2378SOL    HW214134   3.562   4.130   3.071 -0.3106  0.8601 -0.4810
 2379SOL     OW14135   6.782   0.513   6.209  0.3726  0.3754 -0.3275
 2379SOL    HW114136   6.755   0.590   6.151 -3.8453 -0.9856 -0.3132
 2379SOL    HW214137   6.706   0.488   6.270  1.8399 -3.3956  0.1045
 2380SOL     OW14138   6.636   6.784   0.983 -0.3059  0.2170  0.2918
 2380SOL    HW114139   6.576   6.728   0.927 -1.9187  3.0426 -0.8927
 2380SOL    HW214140   6.730   6.777   0.948 -0.9573  0.4107 -1.5428
 2381SOL     OW14141   6.073   0.248   4.487  0.1033 -0.2646 -0.0230
 2381SOL    HW114142   6.053   0.156   4.453 -0.5840 -0.6324  1.3386
 2381SOL    HW214143   6.171   0.264   4.483  0.2755 -1.2255  0.1462
 2382SOL     OW14144   6.689   4.936   4.698 -0.0139  0.1969 -0.2786
 2382SOL    HW114145   6.739   4.943   4.784 -0.8865 -0.3747  0.2846
 2382SOL    HW214146   6.724   4.860   4.645 -0.6387 -0.5556  0.3669
 2383SOL     OW14147   7.277   6.021   7.131  0.0086 -0.0550 -0.2696
 2383SOL    HW114148   7.185   6.007   7.169  0.2834 -2.2802 -0.3519
 2383SOL    HW214149   7.269   6.046   7.034 -0.5397  0.3604 -0.1174
 2384SOL     OW14150   3.063   5.110   6.881  0.0026 -0.3889 -0.2425
 2384SOL    HW114151   3.108   5.137   6.966 -1.8405  0.3403  0.5191
 2384SOL    HW214152   2.964   5.107   6.895 -0.3238 -0.2443 -2.3737
 2385SOL     OW14153   4.938   5.378   0.726 -0.6946  0.1251  0.3094
 2385SOL    HW114154   5.020   5.428   0.698 -1.6667  1.2111 -0.6068
 2385SOL    HW214155   4.944   5.284   0.695 -0.8515  0.8014 -1.8348
 2386SOL     OW14156   6.271   6.391   1.629 -0.4770 -1.3190  0.6193
 2386SOL    HW114157   6.212   6.340   1.567  0.1043 -1.7150  0.3839
 2386SOL    HW214158   6.301   6.475   1.584 -0.1285 -1.5622  0.3924
 2387SOL     OW14159   5.130   0.441   2.166 -0.2417 -1.1406  0.2623
 2387SOL    HW114160   5.101   0.479   2.078 -1.5010 -2.3742  0.1270
 2387SOL    HW214161   5.084   0.353   2.181  0.1141 -1.0288  2.0702
 2388SOL     OW14162   0.053   1.585   3.223  0.7872  0.1088 -0.5014
 2388SOL    HW114163   0.035   1.653   3.295  0.7934 -0.1050 -0.2968
 2388SOL    HW214164   0.149   1.560   3.224  0.9917  0.8466 -1.2406
 2389SOL     OW14165   2.594   1.070   3.203  0.2108  0.4574 -0.0242
 2389SOL    HW114166   2.604   1.066   3.302 -2.7187  1.7424  0.3937
 2389SOL    HW214167   2.622   0.983   3.163  0.5044 -0.4195  2.0306
 2390SOL     OW14168   6.181   0.754   7.126 -0.2901  0.2205 -0.0786
 2390SOL    HW114169   6.187   0.655   7.139 -0.1541 -0.0348 -1.9036
 2390SOL    HW214170   6.246   0.782   7.055 -1.0129  1.4783 -0.2643
 2391SOL     OW14171   6.156   0.119   3.170 -0.1264 -0.5304 -0.1718
 2391SOL    HW114172   6.146   0.213   3.203  1.7877 -0.7241  1.0564
 2391SOL    HW214173   6.078   0.095   3.114 -2.0070  0.8757  1.7539
 2392SOL     OW14174   6.715   2.314   6.266  0.6493  0.2478 -0.0416
 2392SOL    HW114175   6.763   2.285   6.183 -0.4660  0.5382 -0.8165
 2392SOL    HW214176   6.624   2.272   6.267  1.0553 -0.6083  1.5948
 2393SOL     OW14177   5.089   6.431   3.816 -0.3057 -0.3012 -0.1384
 2393SOL    HW114178   5.087   6.516   3.764 -1.3539 -0.5583 -0.5286
 2393SOL    HW214179   5.181   6.417   3.854 -0.0036  0.7535 -0.4711
 2394SOL     OW14180   6.028   2.487   3.629  0.5514 -0.2472  0.3589
 2394SOL    HW114181   6.064   2.405   3.673 -1.4441 -1.5698 -0.4300
 2394SOL    HW214182   5.955   2.526   3.685 -0.4972 -0.6907 -0.6687
 2395SOL     OW14183   3.575   4.019   4.709 -0.3399  0.1476 -0.5150
 2395SOL    HW114184   3.481   4.032   4.677 -1.3253 -3.4558  0.7015
 2395SOL    HW214185   3.575   3.973   4.797  2.5694 -0.6307 -0.8531
 2396SOL     OW14186   4.212   1.703   3.715  0.3163 -0.3288 -0.4471
 2396SOL    HW114187   4.230   1.755   3.631  1.7242  0.3402  0.2605
 2396SOL    HW214188   4.287   1.715   3.779 -1.9180  1.2370  1.9776
 2397SOL     OW14189   5.219   6.038   7.353  0.2186 -0.4478  0.0811
 2397SOL    HW114190   5.218   5.970   7.427 -1.7127  0.1615  0.6507
 2397SOL    HW214191   5.150   6.108   7.372 -0.2063 -0.2134 -2.2588
 2398SOL     OW14192   3.361   2.415   5.773  0.0135 -0.4454  0.1485
 2398SOL    HW114193   3.452   2.374   5.764 -0.2334 -0.6280 -1.7305
 2398SOL    HW214194   3.313   2.373   5.849  1.0641 -1.1901  0.4126
 2399SOL     OW14195   0.816   1.842   2.979  0.2164 -0.6071 -0.5999
 2399SOL    HW114196   0.851   1.936   2.973 -0.4074 -0.4092 -1.1865
 2399SOL    HW214197   0.757   1.823   2.900 -0.2096 -1.2629 -0.1309
 2400SOL     OW14198   3.844   1.212   0.473 -0.4053 -0.3281  0.5669
 2400SOL    HW114199   3.753   1.247   0.499 -0.1369  1.1138 -0.3781
 2400SOL    HW214200   3.833   1.123   0.428 -1.2591 -0.6815  1.4580
 2401SOL     OW14201   5.310   2.876   5.149  0.4536 -0.5792  0.5264
 2401SOL    HW114202   5.248   2.809   5.190 -0.0959 -1.7707 -2.1698
 2401SOL    HW214203   5.403   2.860   5.182 -0.2782 -0.1731  2.8929
 2402SOL     OW14204   3.662   4.589   5.511 -0.0060  0.1310 -0.3226
 2402SOL    HW114205   3.632   4.507   5.463  0.8521  0.1965 -0.9961
 2402SOL    HW214206   3.587   4.625   5.566  0.0580 -1.9497  1.1742
 2403SOL     OW14207   2.972   4.280   2.220  0.0780 -0.2157 -0.2681
 2403SOL    HW114208   3.070   4.263   2.232  0.4734  0.9247 -1.7891
 2403SOL    HW214209   2.929   4.290   2.310  1.5379  0.2301  0.3983
 2404SOL     OW14210   6.616   2.731   1.212  0.4810  0.7841  0.4588
 2404SOL    HW114211   6.692   2.684   1.167 -1.7694 -0.5916 -2.0964
 2404SOL    HW214212   6.591   2.813   1.159 -1.1779  0.0235  0.0143
 2405SOL     OW14213   0.929   2.089   1.851 -0.3846 -0.3323 -0.2594
 2405SOL    HW114214   1.012   2.043   1.822  1.4652  2.7545 -0.1318
 2405SOL    HW214215   0.882   2.128   1.772 -1.7026 -1.9978 -0.3237
 2406SOL     OW14216   1.050   2.320   2.595  0.0121 -0.4237  0.1834
 2406SOL    HW114217   1.070   2.228   2.562 -2.9490 -0.5544 -1.4337
 2406SOL    HW214218   0.977   2.360   2.539  0.6664  2.5904  1.3939
 2407SOL     OW14219   3.823   4.412   4.979 -1.0059 -0.1661  0.7922
 2407SOL    HW114220   3.737   4.463   4.985 -1.1031  0.0911 -2.2940
 2407SOL    HW214221   3.898   4.476   4.961 -1.0050 -0.9428 -2.2205
 2408SOL     OW14222   3.679   6.979   0.418  0.3540 -0.4676  0.5843
 2408SOL    HW114223   3.691   6.983   0.318 -0.3849 -0.7895  0.4788
 2408SOL    HW214224   3.714   6.891   0.452  1.1900 -0.0985  0.6984
 2409SOL     OW14225   7.331   6.582   6.726 -0.0969 -0.1009 -0.2515
 2409SOL    HW114226   7.362   6.624   6.811 -1.5126  0.1647  0.1477
 2409SOL    HW214227   7.319   6.653   6.656  0.7682 -0.2801 -0.5865
 2410SOL     OW14228   5.276   0.901   0.095  0.5722 -0.1300 -0.3017
 2410SOL    HW114229   5.183   0.927   0.122  1.1057  1.2913  0.2256
 2410SOL    HW214230   5.284   0.904  -0.005  0.2756  0.5433 -0.3057
 2411SOL     OW14231   6.616   1.486   0.835 -0.6661  0.6471  0.0746
 2411SOL    HW114232   6.533   1.431   0.823 -1.8949  2.2969  0.8009
 2411SOL    HW214233   6.627   1.509   0.932  1.7657 -1.2515  0.2943
 2412SOL     OW14234   6.364   0.436   4.173  0.4190 -0.3716  0.0170
 2412SOL    HW114235   6.297   0.486   4.228 -1.4210 -2.3947 -0.3016
 2412SOL    HW214236   6.446   0.492   4.160 -0.8691  1.8169  1.1342
 2413SOL     OW14237   4.673   3.956   6.449 -0.0047 -0.7214 -0.6251
 2413SOL    HW114238   4.701   3.923   6.359 -0.0457 -1.4544 -0.3715
 2413SOL    HW214239   4.643   3.879   6.505  0.9845 -0.4000  0.3592
 2414SOL     OW14240   3.296   5.845   6.770  0.2958 -0.5301 -0.0041
 2414SOL    HW114241   3.253   5.898   6.843  0.4112  0.4134 -0.6078
 2414SOL    HW214242   3.395   5.859   6.772  0.4999 -1.9498  0.7882
 2415SOL     OW14243   4.039   7.185   1.417 -0.2306 -0.2708  0.0545
 2415SOL    HW114244   4.039   7.277   1.378 -1.4311 -0.9583 -1.6210
 2415SOL    HW214245   4.082   7.122   1.353 -0.9135 -1.1607  0.4644
 2416SOL     OW14246   0.882   1.507   0.626 -0.3780  0.0888  0.0126
 2416SOL    HW114247   0.855   1.487   0.720 -1.2515  0.0444 -0.2389
 2416SOL    HW214248   0.973   1.471   0.608 -0.2426  0.0282  0.8168
 2417SOL     OW14249   3.846   4.778   0.554  0.1523  0.3070  0.0743
 2417SOL    HW114250   3.769   4.716   0.565  1.3248 -0.8678  1.8613
 2417SOL    HW214251   3.924   4.728   0.518  1.4910  0.4090  2.7278
 2418SOL     OW14252   1.310   2.156   2.368  0.6272  0.5620  0.0752
 2418SOL    HW114253   1.280   2.124   2.458 -1.2123  2.2297  0.0898
 2418SOL    HW214254   1.285   2.088   2.299  1.5982 -0.4943  0.7467
 2419SOL     OW14255   7.241   4.437   3.990  0.2769 -0.0328 -0.3917
 2419SOL    HW114256   7.326   4.384   3.993  1.7313  2.2033 -0.6545
 2419SOL    HW214257   7.211   4.446   3.895  1.2440  1.4280 -0.5782
 2420SOL     OW14258   0.074   5.480   3.447 -0.1210  0.1266 -0.5017
 2420SOL    HW114259  -0.016   5.473   3.404  0.0212 -0.7685 -0.6512
 2420SOL    HW214260   0.073   5.433   3.535 -1.0297  3.7395  1.5249
 2421SOL     OW14261   4.098   0.235   6.323  0.5077 -0.5811  0.1608
 2421SOL    HW114262   4.091   0.310   6.259  1.8051  0.3451  1.0877
 2421SOL    HW214263   4.006   0.201   6.345 -0.2785  2.4119  1.7017
 2422SOL     OW14264   1.491   5.200   5.538 -0.0174  0.0915 -0.6548
 2422SOL    HW114265   1.539   5.177   5.622 -0.2316 -1.5107 -0.9401
 2422SOL    HW214266   1.558   5.213   5.464  0.0716 -0.3530 -0.6527
 2423SOL     OW14267   3.196   1.537   1.319  0.3385 -0.3431 -0.1339
 2423SOL    HW114268   3.198   1.630   1.355 -0.5577 -0.2677 -0.2804
 2423SOL    HW214269   3.244   1.533   1.232  0.5526 -0.0593 -0.0283
 2424SOL     OW14270   2.846   1.843   2.324  0.6358 -0.3553 -0.1223
 2424SOL    HW114271   2.865   1.749   2.353  0.2164 -0.4567 -0.1629
 2424SOL    HW214272   2.789   1.887   2.393  1.2965  0.0498  0.1629
 2425SOL     OW14273   2.842   2.757   3.312 -0.1270  0.2004  0.0253
 2425SOL    HW114274   2.868   2.716   3.225  0.6374 -1.4194  0.9873
 2425SOL    HW214275   2.906   2.729   3.383 -2.7705 -1.5200  1.8537
 2426SOL     OW14276   6.217   5.788   2.655  0.1302 -0.0923  0.5475
 2426SOL    HW114277   6.249   5.755   2.566 -1.2905  1.1661 -0.4612
 2426SOL    HW214278   6.152   5.721   2.693  1.1521 -0.8930  0.9020
 2427SOL     OW14279   3.342   3.521   5.558  0.4357  0.3493  0.0750
 2427SOL    HW114280   3.312   3.434   5.518  1.3318  0.0338  0.0779
 2427SOL    HW214281   3.392   3.503   5.643  0.6619  0.8651  0.0503
 2428SOL     OW14282   1.985   1.406   2.978 -0.3412  0.3480 -0.0652
 2428SOL    HW114283   1.979   1.395   2.879 -1.3075  1.7778 -0.1901
 2428SOL    HW214284   2.077   1.437   3.002 -0.0773 -0.0813 -0.4966
 2429SOL     OW14285   6.264   0.502   1.894 -0.3096  0.0655 -0.2956
 2429SOL    HW114286   6.216   0.589   1.880 -1.4595 -0.3999  0.6592
 2429SOL    HW214287   6.354   0.506   1.852 -1.0138  1.1248 -1.7420
 2430SOL     OW14288   0.279   4.713   6.046  0.0733 -0.2523 -0.3743
 2430SOL    HW114289   0.195   4.718   6.099  1.4508  1.6140  1.7681
 2430SOL    HW214290   0.263   4.748   5.954 -0.8068  3.2959  1.0269
 2431SOL     OW14291   3.780   7.271   3.606  0.0972 -0.0032  0.4400
 2431SOL    HW114292   3.709   7.212   3.567 -0.0441 -0.5162  1.4627
 2431SOL    HW214293   3.838   7.306   3.532 -2.3838  1.9871 -0.6062
 2432SOL     OW14294   6.247   4.874   1.290  0.2663  0.1245 -0.2750
 2432SOL    HW114295   6.249   4.915   1.382  0.2481  0.9270 -0.6216
 2432SOL    HW214296   6.187   4.929   1.231 -0.2970 -0.8087 -0.5717
 2433SOL     OW14297   2.328   3.230   3.614  0.1197  0.0317  0.2738
 2433SOL    HW114298   2.398   3.268   3.554  0.3828  0.9558  1.1406
 2433SOL    HW214299   2.277   3.305   3.657 -1.0281 -0.6271  0.0750
 2434SOL     OW14300   5.461   0.821   0.883 -0.2423  0.5578 -0.1048
 2434SOL    HW114301   5.543   0.867   0.918 -1.1341  2.3656 -0.3200
 2434SOL    HW214302   5.421   0.877   0.810 -1.1805 -0.7417 -0.5970
 2435SOL     OW14303   3.871   3.335   1.207  0.9804 -0.6916 -0.0111
 2435SOL    HW114304   3.780   3.296   1.188  0.8413 -1.1719  1.5786
 2435SOL    HW214305   3.860   3.426   1.247  1.1855 -1.0329  0.8173
 2436SOL     OW14306   5.877   5.221   6.822  0.2629  0.2590 -0.1695
 2436SOL    HW114307   5.841   5.312   6.806 -0.3691  0.1853  0.7855
 2436SOL    HW214308   5.975   5.227   6.842  0.7218  0.4888 -2.4249
 2437SOL     OW14309   5.821   5.528   7.187  0.0561 -0.1414  0.0276
 2437SOL    HW114310   5.811   5.594   7.113  0.9225  0.5145  0.4714
 2437SOL    HW214311   5.880   5.453   7.158 -0.7265 -0.5999 -0.3957
 2438SOL     OW14312   0.552   5.081   4.318 -0.0091  0.1472 -0.0799
 2438SOL    HW114313   0.474   5.142   4.309 -1.4061 -1.7670 -1.3437
 2438SOL    HW214314   0.543   5.005   4.254  1.8937 -1.1723  1.1419
 2439SOL     OW14315   7.076   1.277   2.105 -0.0861 -0.4337  0.7122
 2439SOL    HW114316   7.139   1.225   2.163 -1.3076 -2.0695  0.6084
 2439SOL    HW214317   6.987   1.285   2.151  0.2211  2.0328  0.9473
 2440SOL     OW14318   3.681   0.493   0.035  0.4107 -0.2028  0.2004
 2440SOL    HW114319   3.695   0.400   0.070  0.7251  0.3404  1.5570
 2440SOL    HW214320   3.664   0.555   0.112 -0.0250  0.8235 -0.7157
 2441SOL     OW14321   6.902   3.845   1.045 -0.2599 -0.0565 -0.1324
 2441SOL    HW114322   6.814   3.886   1.068 -0.0080  1.8406 -2.4058
 2441SOL    HW214323   6.960   3.912   0.999  1.3293 -2.0748 -1.1750
 2442SOL     OW14324   4.236   1.314   6.129  0.1809 -0.0888  0.5044
 2442SOL    HW114325   4.249   1.303   6.227  1.8526 -1.4459  0.1692
 2442SOL    HW214326   4.309   1.372   6.092  0.6560 -1.0814 -0.1801
 2443SOL     OW14327   3.415   6.104   1.946 -0.5751  0.4246  0.0281
 2443SOL    HW114328   3.397   6.009   1.971 -1.2292  0.5814  0.1593
 2443SOL    HW214329   3.491   6.139   2.000 -1.5832  0.5776  1.3845
 2444SOL     OW14330   3.559   0.655   1.816 -0.0541 -0.1427  0.5688
 2444SOL    HW114331   3.529   0.583   1.754 -1.2315  0.1114  0.8415
 2444SOL    HW214332   3.493   0.730   1.815  1.2343  1.0018  0.1793
 2445SOL     OW14333   3.002   4.404   3.984  0.3353  0.3583  0.1530
 2445SOL    HW114334   3.027   4.391   3.888 -0.3181 -1.0237  0.1544
 2445SOL    HW214335   2.910   4.443   3.989  0.4919  0.7150  0.2063
 2446SOL     OW14336   5.904   2.250   2.158 -0.1265  0.0311 -0.6474
 2446SOL    HW114337   5.975   2.320   2.148  0.3966 -0.2387  1.0713
 2446SOL    HW214338   5.815   2.291   2.138  0.4092  0.6117 -1.8808
 2447SOL     OW14339   4.586   2.763   5.652  0.1764 -0.2205  0.2751
 2447SOL    HW114340   4.623   2.691   5.711 -0.2241 -0.5345  0.1400
 2447SOL    HW214341   4.625   2.754   5.560 -1.2789 -1.4153 -0.2595
 2448SOL     OW14342   3.305   6.624   6.403  0.3136 -0.2873 -0.2819
 2448SOL    HW114343   3.366   6.577   6.339  1.2357 -0.0151  0.3887
 2448SOL    HW214344   3.211   6.597   6.385  0.6502 -0.8819 -1.1862
 2449SOL     OW14345   7.051   3.268   2.687 -0.1851  0.0540  0.1067
 2449SOL    HW114346   7.081   3.253   2.781  0.0425 -0.0105  0.0231
 2449SOL    HW214347   7.075   3.189   2.631 -0.8273 -0.1473  0.1190
 2450SOL     OW14348   3.493   4.462   3.410 -0.5941  0.3482  0.0452
 2450SOL    HW114349   3.534   4.537   3.462  1.1661  0.5160 -1.5450
 2450SOL    HW214350   3.550   4.380   3.420  0.1075  0.5456 -2.0740
 2451SOL     OW14351   4.970   1.049   4.032  0.4313  0.7001  0.0911
 2451SOL    HW114352   5.040   1.082   3.968 -1.2311 -1.0332 -2.7547
 2451SOL    HW214353   4.879   1.069   3.996 -0.5672  0.4555  2.3725
 2452SOL     OW14354   0.696   5.151   2.135  0.2158  0.3233 -0.1887
 2452SOL    HW114355   0.615   5.102   2.167 -0.5347  1.7839  0.1823
 2452SOL    HW214356   0.762   5.086   2.097 -1.6565 -0.7737 -1.6366
 2453SOL     OW14357   0.975   6.244   5.663  0.1572 -0.4186 -0.4088
 2453SOL    HW114358   1.019   6.155   5.653  1.5897  0.3243 -0.9470
 2453SOL    HW214359   1.003   6.303   5.587 -1.8939  0.0383 -0.8246
 2454SOL     OW14360   2.505   1.409   7.320 -0.1220 -0.6153 -0.2588
 2454SOL    HW114361   2.504   1.442   7.415 -0.3991 -0.9082 -0.1578
 2454SOL    HW214362   2.461   1.319   7.316 -1.8883  0.2445 -0.9794
 2455SOL     OW14363   1.213   1.989   3.842  0.1564  0.0909 -0.4207
 2455SOL    HW114364   1.161   2.049   3.781 -0.3053  1.0435  0.8853
 2455SOL    HW214365   1.311   2.003   3.825  0.0727  1.6943  0.2965
 2456SOL     OW14366   0.736   3.856   0.492 -0.5039  0.6752  0.1467
 2456SOL    HW114367   0.835   3.860   0.476 -0.1863  0.4820  2.0373
 2456SOL    HW214368   0.704   3.943   0.528 -1.0852  0.8153 -0.6765
 2457SOL     OW14369   4.108   5.752   6.143  0.3200 -0.0225  0.1853
 2457SOL    HW114370   4.182   5.707   6.192 -1.4312 -1.4542  1.5890
 2457SOL    HW214371   4.045   5.684   6.107 -0.3364  1.1699 -0.9847
 2458SOL     OW14372   4.396   1.099   5.721  0.0171  0.2645 -0.0727
 2458SOL    HW114373   4.342   1.127   5.800  2.9601  0.3300  1.9787
 2458SOL    HW214374   4.464   1.169   5.700  1.2577 -1.1029 -0.7333
 2459SOL     OW14375   0.877   3.863   3.345 -0.1540  0.0791 -0.4243
 2459SOL    HW114376   0.953   3.850   3.409 -0.3309  0.8764 -0.0450
 2459SOL    HW214377   0.835   3.952   3.361  0.4359  0.7347 -2.3236
 2460SOL     OW14378   4.401   1.819   4.162  0.6913  0.1940  0.6447
 2460SOL    HW114379   4.477   1.767   4.125  0.5206  0.5787 -0.2457
 2460SOL    HW214380   4.380   1.896   4.102  1.1250  1.4690  2.0789
 2461SOL     OW14381   4.367   2.788   0.767  0.0126  0.3210  0.6716
 2461SOL    HW114382   4.398   2.878   0.794  2.9018 -0.3428 -0.2398
 2461SOL    HW214383   4.310   2.795   0.685  1.1426  1.2308 -0.0414
 2462SOL     OW14384   5.687   0.907   0.400 -0.7184  0.0748 -0.3516
 2462SOL    HW114385   5.744   0.868   0.328 -1.6721 -1.7309 -0.1416
 2462SOL    HW214386   5.592   0.909   0.371 -0.9852  0.1760  0.5078
 2463SOL     OW14387   4.360   4.754   2.790  0.4048 -0.3236 -0.0036
 2463SOL    HW114388   4.457   4.777   2.792  0.3766 -0.1900 -0.1499
 2463SOL    HW214389   4.311   4.823   2.736  0.2875 -0.6129 -0.2655
 2464SOL     OW14390   5.736   4.121   6.893 -0.8607  0.5499 -0.6970
 2464SOL    HW114391   5.766   4.196   6.952 -0.2576  0.8680 -1.3894
 2464SOL    HW214392   5.815   4.083   6.844 -1.1618 -0.5626 -0.3281
 2465SOL     OW14393   5.052   1.607   7.200  0.2081 -0.0628  0.4030
 2465SOL    HW114394   4.972   1.566   7.156  1.8421 -0.4298 -2.3552
 2465SOL    HW214395   5.075   1.693   7.153  2.7317 -1.0800 -0.2942
 2466SOL     OW14396   5.209   1.075   1.724 -0.4268 -0.3872 -0.2063
 2466SOL    HW114397   5.258   1.131   1.658 -0.3319 -2.3097 -1.8149
 2466SOL    HW214398   5.116   1.110   1.735  1.3707  3.7208  3.3942
 2467SOL     OW14399   4.045   5.115   0.252 -0.3643  0.1728 -0.2003
 2467SOL    HW114400   4.045   5.117   0.352 -0.9574  2.1077 -0.2175
 2467SOL    HW214401   4.132   5.077   0.219  0.6210  1.3013  1.0419
 2468SOL     OW14402   0.304   5.652   6.981 -0.0192  0.5671  0.3039
 2468SOL    HW114403   0.313   5.739   7.029  0.5672  0.2659  0.7487
 2468SOL    HW214404   0.291   5.669   6.884 -2.1015  1.2103  0.6632
 2469SOL     OW14405   1.583   3.080   1.029 -0.7234  0.4658  0.4220
 2469SOL    HW114406   1.519   3.133   0.974  0.0709  0.3536 -0.6311
 2469SOL    HW214407   1.677   3.109   1.009 -0.3375 -0.6312  0.5902
 2470SOL     OW14408   3.972   5.799   0.285 -0.2660  0.5010  0.3559
 2470SOL    HW114409   4.029   5.728   0.327 -1.5904 -0.2337  0.9678
 2470SOL    HW214410   3.976   5.791   0.186  0.2222  0.0735  0.4068
 2471SOL     OW14411   2.485   2.090   0.503  0.7453 -0.2622  0.3005
 2471SOL    HW114412   2.438   2.138   0.429  2.3590  0.9835  0.0671
 2471SOL    HW214413   2.528   2.007   0.467  3.2647  1.4043 -0.6164
 2472SOL     OW14414   2.104   4.674   2.903 -0.0197 -0.1304  0.1674
 2472SOL    HW114415   2.084   4.721   2.989  0.1111  0.4137 -0.0932
 2472SOL    HW214416   2.194   4.702   2.870 -0.5449  0.5540 -0.7263
 2473SOL     OW14417   2.620   7.320   4.458 -0.2708  0.2539 -0.1284
 2473SOL    HW114418   2.690   7.346   4.392 -0.1605 -0.1796 -0.1864
 2473SOL    HW214419   2.664   7.286   4.542 -0.4021 -0.3470 -0.2957
 2474SOL     OW14420   2.555   4.423   5.355 -0.1698 -0.2973 -0.2900
 2474SOL    HW114421   2.635   4.365   5.373 -0.9926 -1.2002  0.5452
 2474SOL    HW214422   2.526   4.466   5.441 -1.1495 -0.7285 -0.3955
 2475SOL     OW14423   4.370   2.478   3.537 -0.1440  0.3024  0.4820
 2475SOL    HW114424   4.351   2.415   3.613  0.7334 -1.2821 -0.5895
 2475SOL    HW214425   4.376   2.426   3.452  0.3631  1.8869 -0.4513
 2476SOL     OW14426   7.262   2.691   0.964 -0.3591  0.2613  0.3626
 2476SOL    HW114427   7.204   2.611   0.981 -0.3633  0.4413  1.1672
 2476SOL    HW214428   7.347   2.683   1.017 -0.6362  1.1056  0.9287
 2477SOL     OW14429   5.526   2.639   2.045 -0.3178  0.0827  0.0163
 2477SOL    HW114430   5.535   2.640   2.145 -0.7460 -1.5267  0.0756
 2477SOL    HW214431   5.577   2.716   2.007  1.9078 -0.7034  1.3106
 2478SOL     OW14432   6.318   7.293   6.307 -0.5492 -0.0936  0.2802
 2478SOL    HW114433   6.368   7.229   6.367 -0.3427  0.0919  0.3066
 2478SOL    HW214434   6.269   7.241   6.237 -0.4268 -0.2845  0.3352
 2479SOL     OW14435   1.941   4.456   5.017  0.0022  0.4624  0.2824
 2479SOL    HW114436   2.015   4.516   5.047 -1.8134  2.3504  1.1417
 2479SOL    HW214437   1.886   4.503   4.949 -0.3392 -0.9812 -0.4527
 2480SOL     OW14438   5.477   4.448   5.982  0.1501 -0.7069 -0.0441
 2480SOL    HW114439   5.572   4.455   6.013 -0.2528 -0.6308  1.2258
 2480SOL    HW214440   5.474   4.409   5.890  1.5665  1.6294 -1.1232
 2481SOL     OW14441   5.976   7.022   2.703  0.0237  0.4015 -0.7153
 2481SOL    HW114442   6.056   7.015   2.643  1.3319  2.3871  0.7119
 2481SOL    HW214443   6.005   7.049   2.795 -2.0350 -1.6873  0.6192
 2482SOL     OW14444   5.313   7.270   4.156  0.0902  0.2474  0.4772
 2482SOL    HW114445   5.362   7.184   4.136  1.5308  1.2246 -0.2899
 2482SOL    HW214446   5.376   7.335   4.198 -0.5294  1.5627 -0.6079
 2483SOL     OW14447   6.350   4.659   7.023 -0.6584 -0.5644 -0.6526
 2483SOL    HW114448   6.438   4.614   7.041  0.1246  0.5261 -1.6836
 2483SOL    HW214449   6.289   4.644   7.100 -0.4731 -3.5099 -1.0130
 2484SOL     OW14450   4.591   5.617   2.185 -0.3614 -0.2478  0.4117
 2484SOL    HW114451   4.630   5.612   2.278  2.1092 -0.5336 -0.5919
 2484SOL    HW214452   4.493   5.637   2.191 -0.2198 -0.1277  3.0772
 2485SOL     OW14453   3.773   4.064   2.002 -0.2537  0.3495  0.3702
 2485SOL    HW114454   3.844   4.067   2.072  0.3175  2.1423 -0.2799
 2485SOL    HW214455   3.692   4.113   2.034 -1.1883 -1.5668  1.0511
 2486SOL     OW14456   2.355   1.008   0.092  0.4922 -0.3776  0.1073
 2486SOL    HW114457   2.389   0.970   0.006  0.5634 -1.3499  0.5616
 2486SOL    HW214458   2.302   1.090   0.073 -0.1906 -1.0521 -0.9356
 2487SOL     OW14459   2.151   1.126   7.065 -1.1159  0.2685  0.4494
 2487SOL    HW114460   2.206   1.186   7.123 -1.6515 -0.1397  1.3962
 2487SOL    HW214461   2.059   1.164   7.055 -1.6916 -0.7669  1.6865
 2488SOL     OW14462   0.787   1.959   3.992 -0.1713 -0.4117  0.6760
 2488SOL    HW114463   0.819   2.032   3.932 -0.0775 -0.3702  0.7746
 2488SOL    HW214464   0.692   1.975   4.018  0.1421  0.2078  1.4904
 2489SOL     OW14465   1.979   2.233   3.787  0.2556 -0.2309  0.1142
 2489SOL    HW114466   2.060   2.258   3.840  1.2999 -1.3813 -0.8891
 2489SOL    HW214467   1.897   2.266   3.833  1.2529  0.2992  1.5385
 2490SOL     OW14468   6.130   6.226   3.672 -0.0882  0.3120  0.4777
 2490SOL    HW114469   6.129   6.160   3.596 -1.6317  0.0303  0.7355
 2490SOL    HW214470   6.056   6.292   3.659 -0.5798  0.0518  1.9136
 2491SOL     OW14471   1.751   6.396   1.489  0.0890  0.0118 -0.1778
 2491SOL    HW114472   1.688   6.329   1.528  0.7308  0.1954  1.1766
 2491SOL    HW214473   1.845   6.363   1.496  0.2995  0.5028 -0.6395
 2492SOL     OW14474   5.590   6.116   0.651 -0.0937  0.2505 -0.2007
 2492SOL    HW114475   5.595   6.146   0.556  0.0926 -1.4335 -0.7419
 2492SOL    HW214476   5.660   6.163   0.705 -0.9192  2.0432 -0.6416
 2493SOL     OW14477   5.306   5.448   6.677 -0.4371  0.7265 -0.6804
 2493SOL    HW114478   5.274   5.500   6.597  1.5514 -0.9145 -2.5859
 2493SOL    HW214479   5.354   5.510   6.739 -2.3986  2.1119 -0.4593
 2494SOL     OW14480   1.723   5.033   5.646  0.2468 -0.1331 -0.6511
 2494SOL    HW114481   1.675   5.072   5.725  0.7250  0.2539 -0.5523
 2494SOL    HW214482   1.816   5.008   5.672  0.9481  1.5352 -1.5191
 2495SOL     OW14483   2.126   5.860   2.232 -0.5611 -0.4410  0.1394
 2495SOL    HW114484   2.217   5.824   2.211 -0.8127 -0.5698 -0.7912
 2495SOL    HW214485   2.057   5.791   2.209 -1.0460  0.5977 -1.6303
 2496SOL     OW14486   4.554   0.205   6.620 -0.2419 -0.4170  0.4984
 2496SOL    HW114487   4.618   0.276   6.590 -0.7576  0.5216  1.6257
 2496SOL    HW214488   4.599   0.145   6.686 -0.4666  0.1128  1.1277
 2497SOL     OW14489   2.296   0.106   7.052  0.1735 -0.3793  0.5159
 2497SOL    HW114490   2.386   0.070   7.077  0.6848  0.5803  0.0629
 2497SOL    HW214491   2.306   0.198   7.016 -0.9440 -0.4553  0.0020
 2498SOL     OW14492   6.429   6.990   7.349 -0.3174  0.4450 -0.2037
 2498SOL    HW114493   6.332   6.966   7.344 -0.2602  0.3162 -0.7620
 2498SOL    HW214494   6.446   7.073   7.296 -0.3318  1.1575  0.8917
 2499SOL     OW14495   3.347   6.639   7.255  0.2424 -0.2454  0.2567
 2499SOL    HW114496   3.340   6.595   7.166  0.5576  1.1645 -0.4718
 2499SOL    HW214497   3.399   6.724   7.247 -1.5979  1.0205  1.3724
 2500SOL     OW14498   5.059   0.145   2.126 -0.0371 -0.2804 -0.2223
 2500SOL    HW114499   5.129   0.155   2.055  0.1885  0.5453  0.1071
 2500SOL    HW214500   4.985   0.088   2.092 -0.5159  1.0963 -1.5521
 2501SOL     OW14501   1.903   4.139   3.750 -0.6337  0.3975 -0.2257
 2501SOL    HW114502   1.855   4.159   3.835 -1.3887 -0.8708 -0.3316
 2501SOL    HW214503   1.846   4.078   3.693  1.4042 -1.8243  0.0196
 2502SOL     OW14504   4.497   3.179   2.005  0.2330 -0.5187  0.2933
 2502SOL    HW114505   4.411   3.152   1.962 -0.9079  0.7997  1.6738
 2502SOL    HW214506   4.558   3.217   1.936 -1.0382  0.3106 -0.3965
 2503SOL     OW14507   1.279   1.707   2.572 -0.7508 -0.3286  0.1833
 2503SOL    HW114508   1.354   1.755   2.527 -0.5548  0.2000  1.0725
 2503SOL    HW214509   1.296   1.702   2.670 -1.6914 -0.5400  0.3409
 2504SOL     OW14510   3.477   0.331   2.318 -0.2469  0.0347  0.1651
 2504SOL    HW114511   3.451   0.371   2.230  1.3762 -1.1826 -0.9021
 2504SOL    HW214512   3.396   0.314   2.372 -1.2079  1.7044 -0.6951
 2505SOL     OW14513   1.074   5.829   1.853  0.1919 -0.3059  0.3858
 2505SOL    HW114514   1.061   5.767   1.930 -2.8610  0.5166  0.5791
 2505SOL    HW214515   1.111   5.916   1.887  1.6677 -0.9484  0.4902
 2506SOL     OW14516   5.273   3.524   0.708  0.1493  0.0490  0.4159
 2506SOL    HW114517   5.306   3.606   0.662  0.1322  0.6233  1.4223
 2506SOL    HW214518   5.242   3.458   0.639 -1.1576  1.4290 -0.3519
 2507SOL     OW14519   6.048   1.238   1.848  0.4964  0.8053 -0.0264
 2507SOL    HW114520   5.996   1.320   1.871  0.3655  0.3114  1.4779
 2507SOL    HW214521   6.145   1.255   1.865  0.2629 -0.0325  2.4310
 2508SOL     OW14522   2.049   4.299   3.583 -0.0887  0.2083 -0.3573
 2508SOL    HW114523   2.120   4.325   3.648  0.8431 -1.2367 -0.7826
 2508SOL    HW214524   1.979   4.246   3.631 -0.1207  0.3455 -0.2498
 2509SOL     OW14525   0.518   3.947   2.075  0.6294 -0.4082  0.1231
 2509SOL    HW114526   0.559   3.920   1.988  1.7830  1.1102  0.1815
 2509SOL    HW214527   0.570   3.906   2.151  0.2375 -0.9103  0.1182
 2510SOL     OW14528   5.066   3.069   6.628 -0.1338  0.0007 -0.7979
 2510SOL    HW114529   5.062   3.155   6.679 -1.1904 -0.9079  0.6961
 2510SOL    HW214530   5.059   3.088   6.530 -0.0963  1.6285 -0.4971
 2511SOL     OW14531   3.794   3.007   6.243 -0.0298 -0.2144 -0.4729
 2511SOL    HW114532   3.770   3.102   6.223 -0.0096 -0.1125 -0.0053
 2511SOL    HW214533   3.892   3.000   6.260 -0.1403 -0.2139  0.1484
 2512SOL     OW14534   2.427   2.117   6.851 -0.5847  0.0137  0.4155
 2512SOL    HW114535   2.495   2.190   6.858 -0.5864 -0.1074  1.8528
 2512SOL    HW214536   2.454   2.041   6.910 -1.2812 -0.5881 -0.0310
 2513SOL     OW14537   3.711   0.121   0.387  0.5889 -0.3262  0.2953
 2513SOL    HW114538   3.741   0.122   0.483 -1.4980 -1.8905  1.0038
 2513SOL    HW214539   3.694   0.027   0.359 -1.0032  0.2981 -0.8912
 2514SOL     OW14540   2.992   6.601   2.061  0.0306 -0.0919 -0.2397
 2514SOL    HW114541   2.950   6.576   1.973  0.5157 -0.2456 -0.4282
 2514SOL    HW214542   2.972   6.697   2.081 -2.4315 -0.7698  0.8163
 2515SOL     OW14543   2.903   3.136   2.681  0.6614 -0.1646  0.1727
 2515SOL    HW114544   2.914   3.197   2.760  1.8963 -0.6980  0.4223
 2515SOL    HW214545   2.955   3.172   2.604  2.0800 -1.3399  0.5713
 2516SOL     OW14546   1.735   5.258   6.769 -0.3958 -0.3429 -0.3013
 2516SOL    HW114547   1.661   5.205   6.729  0.4302 -0.7028 -1.3744
 2516SOL    HW214548   1.751   5.228   6.863 -1.0347 -0.8541 -0.3556
 2517SOL     OW14549   1.558   2.053   1.312 -0.7238  0.0716 -0.4247
 2517SOL    HW114550   1.543   1.956   1.292  0.6164 -0.1815 -0.2447
 2517SOL    HW214551   1.553   2.067   1.410 -0.6774  0.1431 -0.4331
 2518SOL     OW14552   6.683   3.363   6.835  0.1304 -0.0692 -0.1143
 2518SOL    HW114553   6.729   3.449   6.811  0.7329 -0.2495  0.3925
 2518SOL    HW214554   6.585   3.372   6.817  0.3087  0.4405 -0.8554
 2519SOL     OW14555   6.361   4.549   3.304 -0.2940 -0.0439  0.2566
 2519SOL    HW114556   6.427   4.584   3.371  0.2362 -1.1040  0.2926
 2519SOL    HW214557   6.294   4.492   3.351  0.4072 -1.2515 -0.1922
 2520SOL     OW14558   4.698   1.406   1.554 -0.1375  0.3572  0.0981
 2520SOL    HW114559   4.613   1.456   1.541  0.4085  0.5878 -2.9572
 2520SOL    HW214560   4.774   1.455   1.511  1.3230 -0.5507  1.5246
 2521SOL     OW14561   2.302   4.597   5.556  0.5877  0.1312  0.1256
 2521SOL    HW114562   2.208   4.586   5.524  1.1405 -0.3995 -1.4001
 2521SOL    HW214563   2.335   4.689   5.535  0.1769  0.5352  1.2774
 2522SOL     OW14564   5.983   7.107   6.284  0.0543  0.4297  0.3429
 2522SOL    HW114565   5.953   7.202   6.278 -0.9897  0.1769  1.4378
 2522SOL    HW214566   5.946   7.055   6.206 -1.9957  0.2245  1.4229
 2523SOL     OW14567   6.665   0.389   7.303 -0.9116  0.0626 -0.5899
 2523SOL    HW114568   6.684   0.466   7.364  0.8525 -0.7313 -0.0981
 2523SOL    HW214569   6.609   0.322   7.350 -0.6774  0.0697 -0.3013
 2524SOL     OW14570   0.014   1.184   1.252  0.0806 -0.0631  0.4299
 2524SOL    HW114571   0.041   1.270   1.210 -0.5215  0.0808  0.3396
 2524SOL    HW214572  -0.046   1.202   1.330 -0.1834 -0.4088  0.3098
 2525SOL     OW14573   1.647   5.253   5.038 -0.7443  0.6204  0.0478
 2525SOL    HW114574   1.694   5.333   5.003  0.9132 -0.4895 -0.3458
 2525SOL    HW214575   1.558   5.243   4.993 -1.4490  2.8185  0.9003
 2526SOL     OW14576   0.239   3.387   3.905  0.0993 -0.1972  0.4631
 2526SOL    HW114577   0.249   3.315   3.974 -0.2038 -0.3175  0.3838
 2526SOL    HW214578   0.248   3.347   3.814  1.7382  0.1626  0.4509
 2527SOL     OW14579   2.686   2.403   1.521 -0.2720 -0.4373 -0.2063
 2527SOL    HW114580   2.711   2.316   1.478 -0.1310 -1.3675  1.6917
 2527SOL    HW214581   2.761   2.469   1.508  1.6780 -2.0622  2.2598
 2528SOL     OW14582   3.616   2.982   2.783 -0.4570  0.2622  0.6801
 2528SOL    HW114583   3.551   3.001   2.709 -1.4664  1.5748  1.8736
 2528SOL    HW214584   3.706   2.964   2.744 -1.5870 -2.0941 -1.0507
 2529SOL     OW14585   3.692   5.759   1.559 -0.0321 -0.2201  0.1611
 2529SOL    HW114586   3.698   5.853   1.592 -1.7601  0.2751 -0.8471
 2529SOL    HW214587   3.609   5.716   1.597 -0.4834 -0.5724 -1.2082
 2530SOL     OW14588   0.809   3.165   5.663  0.1027  0.0532  0.1695
 2530SOL    HW114589   0.787   3.096   5.593 -0.8482  0.1003  0.4140
 2530SOL    HW214590   0.859   3.122   5.738 -1.0939 -0.5320  0.6492
 2531SOL     OW14591   5.041   3.405   3.789 -0.7669  0.4159  0.1065
 2531SOL    HW114592   5.062   3.309   3.771 -1.7028  0.2142  0.0775
 2531SOL    HW214593   5.011   3.450   3.705 -1.3630  0.4584  0.3357
 2532SOL     OW14594   4.848   0.490   2.959 -0.0174  0.1135  0.3289
 2532SOL    HW114595   4.942   0.458   2.976  1.0662  1.7846 -2.1799
 2532SOL    HW214596   4.792   0.414   2.926  1.1196 -0.3619 -0.5340
 2533SOL     OW14597   6.779   1.005   6.301 -1.0340  0.3638 -0.2728
 2533SOL    HW114598   6.847   1.016   6.228 -1.0607  0.9822 -0.2059
 2533SOL    HW214599   6.688   1.023   6.264 -1.1580 -0.4192 -0.3517
 2534SOL     OW14600   1.733   3.204   0.235 -0.4361 -0.2408 -0.3851
 2534SOL    HW114601   1.678   3.160   0.165 -2.5779  0.1342  1.0227
 2534SOL    HW214602   1.685   3.284   0.271  0.2213 -0.8928  2.0866
 2535SOL     OW14603   2.073   4.034   1.086 -0.1074 -0.4870 -0.2883
 2535SOL    HW114604   2.115   3.996   1.168 -1.6800  0.1778  0.8454
 2535SOL    HW214605   2.114   4.123   1.065  0.7699 -0.9682 -0.6176
 2536SOL     OW14606   4.899   4.397   4.718  0.0159 -0.6916 -0.2187
 2536SOL    HW114607   4.809   4.441   4.718 -0.0719 -0.8674 -0.4637
 2536SOL    HW214608   4.926   4.375   4.624  0.1436 -0.9807 -0.1172
 2537SOL     OW14609   4.980   3.360   3.252 -0.0288 -0.0799 -0.1179
 2537SOL    HW114610   4.912   3.289   3.234  0.4096 -0.3565 -0.6843
 2537SOL    HW214611   4.948   3.447   3.214  0.8940 -0.6586 -2.2964
 2538SOL     OW14612   2.231   2.567   7.260  0.2189  0.5900  0.4543
 2538SOL    HW114613   2.149   2.536   7.212 -0.9697  1.4603  1.8574
 2538SOL    HW214614   2.294   2.490   7.272 -0.7679 -0.2838  0.1013
 2539SOL     OW14615   4.475   3.689   7.048  0.0775 -0.5675 -0.2906
 2539SOL    HW114616   4.562   3.696   7.001  0.4231 -0.9455  0.2896
 2539SOL    HW214617   4.445   3.780   7.078  0.1583 -0.4097 -0.6815
 2540SOL     OW14618   1.901   2.692   5.964 -0.5544 -0.2978 -0.2015
 2540SOL    HW114619   1.921   2.680   6.061  0.3812 -0.7809 -0.4523
 2540SOL    HW214620   1.869   2.605   5.926 -0.1718 -0.3065 -0.5022
 2541SOL     OW14621   5.336   6.178   2.961  0.5173  0.1511 -0.2133
 2541SOL    HW114622   5.341   6.099   2.900  0.3797 -0.0733  0.0632
 2541SOL    HW214623   5.345   6.147   3.056 -2.6541  0.0804  0.1200
 2542SOL     OW14624   4.554   3.521   3.137  0.0646 -0.0754 -1.0804
 2542SOL    HW114625   4.524   3.615   3.124  1.1689  0.4323 -0.0596
 2542SOL    HW214626   4.606   3.514   3.222 -0.7397 -1.7852 -0.7064
 2543SOL     OW14627   4.100   1.167   3.619  0.5737 -0.6290  0.3435
 2543SOL    HW114628   4.121   1.131   3.528 -0.6904  0.0901 -0.2458
 2543SOL    HW214629   4.180   1.155   3.678  1.3232 -1.3362 -0.7780
 2544SOL     OW14630   3.149   2.140   6.409  0.2703 -0.0946  0.6881
 2544SOL    HW114631   3.075   2.123   6.474  0.0423 -0.3852  0.3574
 2544SOL    HW214632   3.221   2.071   6.422  0.2435 -0.1274  0.6652
 2545SOL     OW14633   4.193   4.286   4.896 -0.0061 -0.5349 -0.1906
 2545SOL    HW114634   4.180   4.337   4.811  0.4410  0.4796  0.3516
 2545SOL    HW214635   4.195   4.188   4.875  0.3712 -0.2842 -1.3755
 2546SOL     OW14636   4.958   3.646   3.190  0.0053  0.4356 -0.1515
 2546SOL    HW114637   4.927   3.691   3.106  0.9749  1.6741  0.1416
 2546SOL    HW214638   4.930   3.699   3.269  1.6074  0.8472  0.1729
 2547SOL     OW14639   6.452   4.624   2.936  0.4133  0.5834  0.2391
 2547SOL    HW114640   6.419   4.717   2.954 -1.5182 -0.3080  1.5005
 2547SOL    HW214641   6.375   4.565   2.914  1.6273 -0.7240 -0.5912
 2548SOL     OW14642   0.642   1.360   3.481  0.7466 -0.3828 -0.2182
 2548SOL    HW114643   0.719   1.297   3.468  0.1908 -1.3216  0.8715
 2548SOL    HW214644   0.557   1.307   3.491  0.1927  0.5656  0.1755
 2549SOL     OW14645   0.379   1.089   0.624 -0.1735  0.0767  0.2895
 2549SOL    HW114646   0.372   1.187   0.604  0.4350 -0.1195 -0.9696
 2549SOL    HW214647   0.466   1.071   0.670  0.2172 -0.0045 -0.4572
 2550SOL     OW14648   2.391   3.983   3.128  0.5243  0.5513 -0.0970
 2550SOL    HW114649   2.349   3.914   3.187  2.0205  0.0637  0.4347
 2550SOL    HW214650   2.489   3.963   3.119  0.3317  0.6145 -2.7446
 2551SOL     OW14651   4.440   3.373   4.823  0.5363  0.1726  0.0035
 2551SOL    HW114652   4.406   3.420   4.905 -0.7341 -0.6134 -0.0576
 2551SOL    HW214653   4.536   3.395   4.810  0.6542  0.6168  1.4873
 2552SOL     OW14654   4.947   6.988   0.640  0.3924 -0.1230  0.0964
 2552SOL    HW114655   4.966   7.072   0.690  2.2619  0.1756 -1.0976
 2552SOL    HW214656   4.973   6.909   0.696  0.6320  0.1434  0.3574
 2553SOL     OW14657   3.752   6.937   1.221 -0.1184  0.5193 -0.0145
 2553SOL    HW114658   3.712   6.948   1.130  1.2232  0.2454 -0.6467
 2553SOL    HW214659   3.842   6.894   1.213  0.0710  0.6254  1.4341
 2554SOL     OW14660   4.399   7.262   0.718  0.1474  0.4142  0.1445
 2554SOL    HW114661   4.442   7.341   0.675 -0.7012 -0.3517 -2.2093
 2554SOL    HW214662   4.460   7.223   0.786  1.6454  1.5337 -0.5434
 2555SOL     OW14663   1.071   2.680   1.353  0.7877 -0.3500  0.4445
 2555SOL    HW114664   1.020   2.652   1.271  0.1658 -1.4994  1.2067
 2555SOL    HW214665   1.082   2.780   1.353 -0.6971 -0.1707 -0.1887
 2556SOL     OW14666   4.873   1.290   6.376 -0.0513  0.1196  0.1901
 2556SOL    HW114667   4.964   1.264   6.344  0.5548  0.4800  1.5769
 2556SOL    HW214668   4.805   1.228   6.337  0.9807 -1.2366  0.5038
 2557SOL     OW14669   7.136   1.273   0.791  0.1319 -0.0603  0.3768
 2557SOL    HW114670   7.053   1.303   0.745 -1.6933 -1.9662  2.3365
 2557SOL    HW214671   7.139   1.310   0.884  1.3641 -0.1917  0.4085
 2558SOL     OW14672   3.354   2.204   4.697 -0.3295  0.1869  0.7677
 2558SOL    HW114673   3.333   2.108   4.679  0.3769 -0.1764  1.8198
 2558SOL    HW214674   3.420   2.237   4.629 -1.4201  0.2586 -0.2708
 2559SOL     OW14675   4.159   3.910   5.513  0.0501  0.0279 -0.5451
 2559SOL    HW114676   4.202   3.997   5.490 -2.6022  1.7278  0.7284
 2559SOL    HW214677   4.063   3.912   5.484 -0.3134 -2.0970  0.4324
 2560SOL     OW14678   3.415   0.110   4.201 -0.5974 -0.1971 -0.0555
 2560SOL    HW114679   3.328   0.124   4.248 -0.2431 -1.8970  1.1596
 2560SOL    HW214680   3.413   0.023   4.152  0.8446 -0.8440  1.0028
 2561SOL     OW14681   4.146   6.986   5.824 -0.5753  0.7072  0.6879
 2561SOL    HW114682   4.151   6.893   5.861 -0.5538  0.6393  0.5128
 2561SOL    HW214683   4.238   7.021   5.808 -0.4947  1.8285  3.4405
 2562SOL     OW14684   2.564   7.116   3.325 -0.1510 -0.8929 -0.1359
 2562SOL    HW114685   2.618   7.199   3.336  0.7261 -1.5769  0.7957
 2562SOL    HW214686   2.590   7.050   3.395 -1.5351 -1.5860 -0.2616
 2563SOL     OW14687   0.593   4.064   2.728 -0.0127 -0.3702 -0.5135
 2563SOL    HW114688   0.680   4.112   2.727 -0.8550  1.2159  0.0687
 2563SOL    HW214689   0.590   4.001   2.806  0.3801  0.0283 -0.1772
 2564SOL     OW14690   6.097   3.696   6.946 -0.3107 -0.2057  0.4795
 2564SOL    HW114691   5.999   3.688   6.965 -1.0366  0.9407 -2.4890
 2564SOL    HW214692   6.119   3.648   6.862  1.4271  0.7195  0.3883
 2565SOL     OW14693   4.791   4.145   0.257  0.4696 -0.3763  0.3957
 2565SOL    HW114694   4.717   4.136   0.323  0.4418  1.5873  0.6717
 2565SOL    HW214695   4.771   4.221   0.194  0.2704 -2.4968 -2.1835
 2566SOL     OW14696   2.699   4.825   5.686  0.4790 -0.2295 -0.4003
 2566SOL    HW114697   2.761   4.901   5.707 -0.6755  0.4804  0.5374
 2566SOL    HW214698   2.643   4.804   5.767 -2.2690  0.8300 -1.9446
 2567SOL     OW14699   1.663   6.738   0.543 -0.1653 -0.3965 -0.0536
 2567SOL    HW114700   1.746   6.763   0.593  0.8582 -2.1534 -0.7985
 2567SOL    HW214701   1.594   6.705   0.608 -1.0000  2.7763  0.7678
 2568SOL     OW14702   3.954   1.315   7.211  0.7143 -0.2311  0.7661
 2568SOL    HW114703   3.909   1.336   7.299 -1.2545 -2.1047  0.2359
 2568SOL    HW214704   4.014   1.236   7.222 -2.1532 -2.6403 -0.3046
 2569SOL     OW14705   1.915   4.244   0.075  0.2561 -0.0779 -0.7478
 2569SOL    HW114706   1.916   4.342   0.096 -1.4836  0.1687 -1.6723
 2569SOL    HW214707   1.973   4.226  -0.004  2.0047 -0.0802  0.5221
 2570SOL     OW14708   6.626   0.439   4.701 -0.9377 -0.0535  0.1342
 2570SOL    HW114709   6.570   0.401   4.627  0.4281  0.1665 -1.0446
 2570SOL    HW214710   6.663   0.528   4.672 -1.3537  0.5998  1.5574
 2571SOL     OW14711   6.228   2.580   4.947 -0.8909  0.6592  0.2726
 2571SOL    HW114712   6.299   2.637   4.988  0.4702 -0.1627 -0.8788
 2571SOL    HW214713   6.221   2.494   4.997  2.5188 -1.4072 -2.5797
 2572SOL     OW14714   4.914   4.250   6.613  0.4553  0.7286  0.3480
 2572SOL    HW114715   4.931   4.209   6.702  0.3684  1.0303  0.5044
 2572SOL    HW214716   4.977   4.212   6.546 -0.4235 -0.5417  0.2356
 2573SOL     OW14717   3.668   6.931   1.503  0.1844 -0.4441  0.2196
 2573SOL    HW114718   3.678   6.851   1.563  1.5076 -0.1064  0.4625
 2573SOL    HW214719   3.670   6.902   1.408 -0.6546 -0.8434  0.3165
 2574SOL     OW14720   6.319   6.748   6.011 -0.4587 -0.1581  0.3938
 2574SOL    HW114721   6.338   6.846   6.015 -0.6506 -0.1087  0.0962
 2574SOL    HW214722   6.220   6.732   6.019 -0.3426 -0.3862  1.4478
 2575SOL     OW14723   0.003   6.865   5.040  1.0715  0.0201 -0.4008
 2575SOL    HW114724   0.057   6.860   4.956  0.8313  0.8502 -0.6049
 2575SOL    HW214725  -0.094   6.862   5.018  1.0028  0.4931 -0.1691
 2576SOL     OW14726   3.474   5.092   0.191  0.0877  0.0909  0.3384
 2576SOL    HW114727   3.568   5.070   0.215 -0.5851 -2.1626  1.0114
 2576SOL    HW214728   3.423   5.115   0.274  0.0146  1.2032 -0.0107
 2577SOL     OW14729   2.402   3.142   2.436 -0.1506  0.6208 -0.2553
 2577SOL    HW114730   2.332   3.210   2.462 -0.3884  0.1153  0.4530
 2577SOL    HW214731   2.382   3.055   2.482  0.9893  0.4902  0.0050
 2578SOL     OW14732   4.665   2.805   1.528  0.2631 -0.5703  0.1267
 2578SOL    HW114733   4.697   2.884   1.476  1.4833  0.0494  1.7550
 2578SOL    HW214734   4.594   2.757   1.476  0.4096  0.8506 -1.4391
 2579SOL     OW14735   1.644   3.260   2.571 -0.0767  0.2738 -0.0882
 2579SOL    HW114736   1.602   3.320   2.639 -0.0690  0.4780 -0.2626
 2579SOL    HW214737   1.686   3.315   2.500  0.5557  0.0720  0.1256
 2580SOL     OW14738   4.734   3.137   2.166 -0.4823 -0.1065  0.3369
 2580SOL    HW114739   4.641   3.120   2.135  0.0873 -4.3266  0.5923
 2580SOL    HW214740   4.799   3.110   2.094  0.5726  1.1961  0.7872
 2581SOL     OW14741   3.734   4.765   6.845  0.2408 -0.3770 -0.0910
 2581SOL    HW114742   3.767   4.818   6.767 -0.7775  0.2471 -0.0939
 2581SOL    HW214743   3.700   4.827   6.916 -2.6525 -1.0607 -0.8350
 2582SOL     OW14744   1.293   0.804   0.669  0.6484 -0.2190  0.2736
 2582SOL    HW114745   1.312   0.818   0.572 -0.3137  2.3712  0.4356
 2582SOL    HW214746   1.201   0.836   0.690  0.4404 -1.7650  1.8507
 2583SOL     OW14747   5.066   4.094   0.325 -0.2157  0.2350  0.1201
 2583SOL    HW114748   4.973   4.118   0.299 -0.5650 -0.6477  0.5491
 2583SOL    HW214749   5.124   4.176   0.321 -0.5165  0.3816 -2.2615
 2584SOL     OW14750   6.713   5.007   3.427 -0.3513 -0.3288 -0.3348
 2584SOL    HW114751   6.659   5.079   3.383 -0.8359 -2.1212 -2.8283
 2584SOL    HW214752   6.809   5.033   3.428 -0.6769  0.8748 -0.1124
 2585SOL     OW14753   3.779   0.678   3.498  0.8096  0.2488  0.2365
 2585SOL    HW114754   3.693   0.695   3.449  0.3784 -0.7897  0.6253
 2585SOL    HW214755   3.855   0.686   3.434  0.3769  0.5759 -0.2486
 2586SOL     OW14756   4.247   5.577   6.322 -0.3171 -0.0630  0.7798
 2586SOL    HW114757   4.190   5.531   6.390 -0.0408  2.5738  2.8670
 2586SOL    HW214758   4.343   5.576   6.352  0.7758 -4.0387 -2.4644
 2587SOL     OW14759   1.506   7.311   7.339 -0.4072 -0.0106  0.0145
 2587SOL    HW114760   1.430   7.260   7.301  0.0541  0.2865 -1.3269
 2587SOL    HW214761   1.534   7.270   7.426 -1.1008 -1.0323 -0.2428
 2588SOL     OW14762   0.152   7.239   6.068  0.3904 -0.1622  0.3152
 2588SOL    HW114763   0.149   7.213   6.165 -1.8525  1.5732  0.7383
 2588SOL    HW214764   0.134   7.158   6.012  0.9204 -1.0207  1.3544
 2589SOL     OW14765   3.020   2.777   1.995 -0.2733 -0.4586 -0.0898
 2589SOL    HW114766   2.945   2.767   1.930 -1.7272  0.4528  1.4004
 2589SOL    HW214767   3.027   2.695   2.051 -0.5572 -0.3007  0.1777
 2590SOL     OW14768   4.238   4.597   2.998 -0.0041  0.2787 -0.0866
 2590SOL    HW114769   4.221   4.499   2.989 -0.6377  0.4765 -1.1325
 2590SOL    HW214770   4.271   4.633   2.911 -1.1302  1.2583 -0.1205
 2591SOL     OW14771   2.152   6.686   1.715 -0.0176 -0.2310 -0.5407
 2591SOL    HW114772   2.248   6.704   1.694 -0.0414 -0.2311 -0.6482
 2591SOL    HW214773   2.096   6.762   1.681 -0.3444 -1.4586 -2.8076
 2592SOL     OW14774   5.162   1.964   5.861 -0.3249 -0.5603 -0.0373
 2592SOL    HW114775   5.222   1.967   5.941  1.2695 -1.3217 -1.1684
 2592SOL    HW214776   5.116   1.876   5.856 -2.5702  0.4880  1.5376
 2593SOL     OW14777   3.902   0.836   3.696 -0.0711  0.1049 -0.1542
 2593SOL    HW114778   3.857   0.775   3.762  0.1320 -0.0919 -0.1956
 2593SOL    HW214779   3.892   0.799   3.604 -0.9370  0.7299 -0.3164
 2594SOL     OW14780   6.005   2.873   1.693  0.2000 -0.1754  0.1119
 2594SOL    HW114781   6.026   2.859   1.790  2.7490 -1.0383 -0.5250
 2594SOL    HW214782   6.031   2.791   1.641  1.2646  1.2355 -1.6402
 2595SOL     OW14783   1.395   5.220   4.895 -0.1449 -0.4498 -0.3085
 2595SOL    HW114784   1.369   5.133   4.937  1.9763 -0.9930 -0.0523
 2595SOL    HW214785   1.411   5.206   4.797 -0.1441 -0.2853 -0.3314
 2596SOL     OW14786   3.547   2.685   2.421  0.7466  0.0773 -0.1764
 2596SOL    HW114787   3.632   2.676   2.473  1.3190  0.4906 -1.0211
 2596SOL    HW214788   3.533   2.603   2.365 -0.6074 -0.9992  1.6691
 2597SOL     OW14789   3.821   0.117   6.878  0.2132 -0.2274  0.1497
 2597SOL    HW114790   3.899   0.065   6.843  1.1724 -0.3709  2.3893
 2597SOL    HW214791   3.828   0.212   6.849  0.4171 -0.5541 -0.8967
 2598SOL     OW14792   7.036   3.307   7.037  0.1421  0.2586 -0.4100
 2598SOL    HW114793   6.937   3.317   7.047  0.1295  2.4862 -2.3433
 2598SOL    HW214794   7.062   3.212   7.053 -2.4044 -0.4979 -0.6538
 2599SOL     OW14795   6.400   3.078   0.928  0.2810 -0.3325  0.1859
 2599SOL    HW114796   6.419   3.071   0.830 -1.0276 -0.3889 -0.0665
 2599SOL    HW214797   6.307   3.112   0.942 -0.0540 -1.7061  1.4035
 2600SOL     OW14798   0.399   3.074   3.918 -0.0058  0.6178 -0.0521
 2600SOL    HW114799   0.489   3.049   3.953 -0.7270 -0.4421  1.0871
 2600SOL    HW214800   0.340   3.102   3.993 -0.6773  1.1515 -0.7702
 2601SOL     OW14801   1.179   0.986   6.897 -0.0040  0.4531  0.2247
 2601SOL    HW114802   1.093   0.935   6.884  0.9099 -1.1618  0.3604
 2601SOL    HW214803   1.180   1.027   6.988 -0.0489 -0.6839  0.7486
 2602SOL     OW14804   4.009   6.615   6.077 -0.2275  0.3400 -0.3290
 2602SOL    HW114805   3.935   6.591   6.014 -1.0017 -0.6372  0.9388
 2602SOL    HW214806   4.028   6.538   6.138 -0.8206  1.9056  1.9079
 2603SOL     OW14807   4.472   6.322   5.414  0.9325 -0.1293  0.0296
 2603SOL    HW114808   4.376   6.298   5.430  0.9640  0.0688  0.5134
 2603SOL    HW214809   4.480   6.367   5.325  0.6090 -0.3536 -0.1139
 2604SOL     OW14810   5.784   6.040   5.840 -0.3946 -0.5731  0.0041
 2604SOL    HW114811   5.856   6.109   5.843 -0.7167 -0.1449 -1.6154
 2604SOL    HW214812   5.707   6.074   5.786 -0.7662 -1.9945 -0.3941
 2605SOL     OW14813   6.946   3.152   5.696  0.0070 -0.9477 -0.2177
 2605SOL    HW114814   6.958   3.132   5.599  0.8253 -1.2641 -0.0540
 2605SOL    HW214815   6.974   3.246   5.715  1.7346 -1.5053  0.0607
 2606SOL     OW14816   0.020   4.576   2.114  0.3119 -0.0241  0.2593
 2606SOL    HW114817   0.117   4.555   2.127  0.5697  0.0630 -1.4132
 2606SOL    HW214818  -0.031   4.491   2.106 -0.0865 -0.1045  3.3454
 2607SOL     OW14819   1.310   1.165   0.641 -0.5920  0.4650  0.0959
 2607SOL    HW114820   1.292   1.067   0.642 -0.5925  0.4466 -0.9489
 2607SOL    HW214821   1.324   1.197   0.734 -2.6848 -0.1407  0.6513
 2608SOL     OW14822   3.755   2.755   3.249  0.3817  0.2013 -0.3310
 2608SOL    HW114823   3.839   2.786   3.295 -0.2009  1.6474 -0.2301
 2608SOL    HW214824   3.725   2.824   3.183 -1.7212  0.5080  0.9027
 2609SOL     OW14825   2.101   5.021   6.007 -0.0499  0.1037  0.0169
 2609SOL    HW114826   2.183   4.965   5.999 -0.2348  0.0402 -1.6460
 2609SOL    HW214827   2.074   5.028   6.103  0.7632 -1.5124  0.3766
 2610SOL     OW14828   5.503   3.471   2.239  0.2057 -0.0292 -0.6207
 2610SOL    HW114829   5.488   3.519   2.153  1.4627  0.6712 -0.4581
 2610SOL    HW214830   5.578   3.514   2.289  0.6595 -1.5233  0.0166
 2611SOL     OW14831   2.182   6.886   1.363  0.1868 -0.1178  0.0136
 2611SOL    HW114832   2.182   6.978   1.324 -1.7854 -1.0742 -2.4403
 2611SOL    HW214833   2.184   6.891   1.463  3.9040  2.4794 -0.0982
 2612SOL     OW14834   6.611   1.064   5.732 -0.0281  0.4371  0.0783
 2612SOL    HW114835   6.574   0.972   5.722 -1.7369  1.1090  0.1522
 2612SOL    HW214836   6.627   1.104   5.642 -0.1749  0.4264  0.0483
 2613SOL     OW14837   4.559   4.456   7.304 -0.2240 -0.1749 -0.0366
 2613SOL    HW114838   4.460   4.446   7.316 -0.3448  0.8331 -0.1164
 2613SOL    HW214839   4.577   4.499   7.215  0.3197 -1.0438 -0.3483
 2614SOL     OW14840   5.688   6.644   3.034 -0.0468 -0.2988 -0.0978
 2614SOL    HW114841   5.673   6.628   3.131  0.7024  0.1763  0.1034
 2614SOL    HW214842   5.681   6.741   3.014  2.7866 -0.0332  0.0363
 2615SOL     OW14843   7.263   2.301   2.718  0.8055 -0.2016 -0.4364
 2615SOL    HW114844   7.228   2.221   2.766 -1.3540 -0.0080 -1.6271
 2615SOL    HW214845   7.192   2.372   2.714  1.4999  0.4144 -2.4411
 2616SOL     OW14846   4.888   0.509   4.341  0.1605 -0.0347 -0.5697
 2616SOL    HW114847   4.964   0.538   4.398  0.5123 -0.7491 -0.6628
 2616SOL    HW214848   4.861   0.583   4.279 -0.0801  0.6687  0.3675
 2617SOL     OW14849   6.730   0.782   2.187 -0.0230  0.4687  0.1768
 2617SOL    HW114850   6.772   0.757   2.274 -0.2148  0.6277  0.3172
 2617SOL    HW214851   6.798   0.777   2.114 -0.1645 -0.9179  0.1236
 2618SOL     OW14852   5.258   2.540   3.164 -0.4295 -0.1406  0.5906
 2618SOL    HW114853   5.247   2.480   3.084 -0.5016  0.7738 -0.0976
 2618SOL    HW214854   5.202   2.506   3.239 -1.3114 -0.3175 -0.1435
 2619SOL     OW14855   5.366   2.899   2.743 -0.0852  0.0564 -0.0919
 2619SOL    HW114856   5.393   2.966   2.675  0.1518 -0.6919 -0.7383
 2619SOL    HW214857   5.267   2.884   2.737 -0.4340  1.6778  1.2680
 2620SOL     OW14858   6.155   3.599   5.979 -0.6653 -0.6716  0.1119
 2620SOL    HW114859   6.191   3.578   5.888  1.7551 -2.4967  1.4291
 2620SOL    HW214860   6.163   3.698   5.996  1.1488 -0.6450 -0.7541
 2621SOL     OW14861   1.278   5.084   0.462  0.6599  0.2856  0.4561
 2621SOL    HW114862   1.362   5.052   0.506 -0.0538  0.1425  1.7405
 2621SOL    HW214863   1.273   5.046   0.369 -0.1271 -3.3527  1.9002
 2622SOL     OW14864   5.490   2.862   2.413  0.0086  0.2909  0.1288
 2622SOL    HW114865   5.434   2.842   2.334 -0.5552  0.5615  0.4550
 2622SOL    HW214866   5.451   2.940   2.463  1.2173  1.1225 -0.1886
 2623SOL     OW14867   6.402   2.387   6.202  0.3145 -0.0393 -0.4155
 2623SOL    HW114868   6.455   2.471   6.194  1.1344 -0.6043 -0.9134
 2623SOL    HW214869   6.411   2.332   6.119 -2.1557  0.4826 -1.0786
 2624SOL     OW14870   4.129   5.416   5.420  0.6830  0.1307 -0.4664
 2624SOL    HW114871   4.215   5.409   5.469  0.3547  1.7799  0.3808
 2624SOL    HW214872   4.145   5.453   5.329  0.6173  2.8134  0.5695
 2625SOL     OW14873   1.968   2.519   5.559 -0.7232  0.0291 -0.3871
 2625SOL    HW114874   1.938   2.546   5.468 -1.5737  0.0782 -0.0922
 2625SOL    HW214875   1.990   2.600   5.613 -1.6621  0.0569 -0.0529
 2626SOL     OW14876   3.443   0.997   2.918 -0.5056 -0.2756 -0.0246
 2626SOL    HW114877   3.476   0.965   2.830  2.0766 -1.4006  1.2934
 2626SOL    HW214878   3.453   1.097   2.923 -0.2909 -0.2554 -0.8679
 2627SOL     OW14879   5.275   5.099   0.067  0.7287  0.4262  0.3467
 2627SOL    HW114880   5.275   5.090  -0.033 -0.3555 -0.4996  0.4165
 2627SOL    HW214881   5.338   5.033   0.106 -0.7497 -0.9859  0.3958
 2628SOL     OW14882   7.266   6.390   6.377  0.2996  0.2293  0.3735
 2628SOL    HW114883   7.167   6.400   6.386  0.2968  1.3549 -0.7407
 2628SOL    HW214884   7.291   6.295   6.395 -0.8410  0.1789  1.7803
 2629SOL     OW14885   6.220   0.731   4.053  0.4419 -0.1834  0.3886
 2629SOL    HW114886   6.235   0.709   4.150 -1.0207  2.2284  1.1835
 2629SOL    HW214887   6.221   0.830   4.040 -1.0851 -0.4273 -1.8014
 2630SOL     OW14888   7.201   4.350   5.580  0.6413 -0.0743  0.2697
 2630SOL    HW114889   7.218   4.424   5.645 -0.9102 -0.6970  1.3932
 2630SOL    HW214890   7.174   4.268   5.629 -1.9480 -0.1595 -1.2254
 2631SOL     OW14891   5.669   5.540   2.176 -0.5756 -0.9774 -0.1944
 2631SOL    HW114892   5.618   5.603   2.118 -0.4067 -2.1921 -1.7097
 2631SOL    HW214893   5.612   5.513   2.254 -2.0980 -1.9366 -1.5998
 2632SOL     OW14894   3.148   1.560   0.147  0.3768  0.0994 -0.4627
 2632SOL    HW114895   3.158   1.619   0.227 -0.8047 -1.1478  0.6347
 2632SOL    HW214896   3.212   1.589   0.075  1.4769  1.2086  0.9436
 2633SOL     OW14897   7.228   1.670   3.457  0.1876  0.1588  0.7883
 2633SOL    HW114898   7.219   1.571   3.473  0.7125  0.2701  1.7855
 2633SOL    HW214899   7.178   1.720   3.528 -1.7219  0.6028 -0.8089
 2634SOL     OW14900   1.591   4.057   5.580  0.5913 -0.4061 -0.4936
 2634SOL    HW114901   1.496   4.033   5.601  0.7814 -2.1956 -1.5980
 2634SOL    HW214902   1.600   4.074   5.482  1.7377 -1.7608 -0.6267
 2635SOL     OW14903   2.750   1.678   0.653  0.2958 -0.9091 -0.1823
 2635SOL    HW114904   2.781   1.770   0.631  1.4351 -1.2733 -0.1310
 2635SOL    HW214905   2.732   1.671   0.751 -0.6421 -0.4926 -0.3255
 2636SOL     OW14906   2.172   6.284   5.775  0.7738 -0.0872 -0.1686
 2636SOL    HW114907   2.164   6.384   5.773 -2.0361 -0.1686  2.9449
 2636SOL    HW214908   2.160   6.247   5.683 -0.7241  2.2814 -0.9698
 2637SOL     OW14909   4.658   7.227   3.146 -0.0234 -0.6369 -0.6663
 2637SOL    HW114910   4.571   7.269   3.173  0.6853  2.1167 -2.4692
 2637SOL    HW214911   4.644   7.168   3.067 -0.5432 -1.7002  0.1991
 2638SOL     OW14912   1.128   7.323   5.777  0.3543 -0.0351 -0.0594
 2638SOL    HW114913   1.201   7.261   5.749  0.7007  0.1532  0.4064
 2638SOL    HW214914   1.124   7.401   5.715  2.7097  1.6000  1.7744
 2639SOL     OW14915   5.107   7.272   4.412 -0.0695 -0.6928 -0.0041
 2639SOL    HW114916   5.199   7.281   4.451 -0.7576  1.8885  1.1022
 2639SOL    HW214917   5.087   7.351   4.354 -2.2630 -0.2692  1.2566
 2640SOL     OW14918   1.640   4.474   0.056  0.0717  0.2439  0.1913
 2640SOL    HW114919   1.715   4.429   0.008  0.7144  0.2585  1.1741
 2640SOL    HW214920   1.586   4.405   0.105  2.6685  0.7668  3.9488
 2641SOL     OW14921   4.156   6.324   4.805 -0.1206  0.4568 -0.2595
 2641SOL    HW114922   4.134   6.398   4.868  0.4654  0.3239  0.0988
 2641SOL    HW214923   4.071   6.280   4.775 -0.4168  0.6805  0.2467
 2642SOL     OW14924   6.957   5.586   4.599  0.2937 -0.4461 -0.1884
 2642SOL    HW114925   7.021   5.516   4.631  1.4865  1.1512  0.9888
 2642SOL    HW214926   6.871   5.543   4.572  0.2989 -2.1532  2.3828
 2643SOL     OW14927   5.179   4.766   0.579  0.2256 -0.1276 -0.0533
 2643SOL    HW114928   5.200   4.782   0.483  0.3681 -0.4820 -0.0806
 2643SOL    HW214929   5.081   4.749   0.590  0.3460 -0.9500 -0.2484
 2644SOL     OW14930   2.772   0.510   2.716  0.2241 -0.0133 -0.5836
 2644SOL    HW114931   2.711   0.583   2.747  2.4898  1.5255  0.3409
 2644SOL    HW214932   2.776   0.511   2.616  0.0252  0.9367 -0.5881
 2645SOL     OW14933   1.998   4.292   6.660  0.4712  0.0000 -0.1780
 2645SOL    HW114934   2.058   4.215   6.678 -2.0442 -1.4083  2.5644
 2645SOL    HW214935   1.911   4.259   6.622 -0.0670  1.6138 -0.3938
 2646SOL     OW14936   5.641   3.059   5.937  0.5866  0.4000 -0.7327
 2646SOL    HW114937   5.724   3.005   5.930  0.2658  0.0421 -1.8453
 2646SOL    HW214938   5.625   3.107   5.851 -0.5802  0.1462 -0.6617
 2647SOL     OW14939   5.037   4.618   1.232  0.3684 -0.0164 -0.1511
 2647SOL    HW114940   5.060   4.715   1.238  0.3426  0.0127 -0.4780
 2647SOL    HW214941   4.946   4.602   1.269  0.3259  0.1047 -0.2032
 2648SOL     OW14942   5.916   4.974   5.869 -0.1044 -0.7000  0.2863
 2648SOL    HW114943   5.827   4.948   5.906 -0.6104 -0.2530 -0.5937
 2648SOL    HW214944   5.905   5.049   5.804  1.0160 -0.0974  0.7728
 2649SOL     OW14945   2.838   7.075   0.965  1.0486 -0.8483 -0.5613
 2649SOL    HW114946   2.854   7.033   1.054  1.5858  0.1869 -0.1532
 2649SOL    HW214947   2.749   7.121   0.965  1.8946  0.8260  0.1174
 2650SOL     OW14948   3.053   0.330   1.396  0.1033 -0.2483  0.3808
 2650SOL    HW114949   3.082   0.358   1.304  1.1004  1.0038  1.0636
 2650SOL    HW214950   3.073   0.233   1.408 -0.1554 -0.4569 -0.7662
 2651SOL     OW14951   1.473   4.208   5.042  0.2379  0.6087  0.2557
 2651SOL    HW114952   1.474   4.305   5.020 -0.8871  0.3846 -0.8408
 2651SOL    HW214953   1.381   4.172   5.029  0.7244 -0.6894  0.3200
 2652SOL     OW14954   6.915   4.151   6.206  0.0466 -0.0006 -0.0876
 2652SOL    HW114955   6.867   4.157   6.294 -0.7112  0.2011 -0.5007
 2652SOL    HW214956   6.871   4.081   6.149  1.3480 -1.0453  0.1773
 2653SOL     OW14957   1.375   3.713   2.535 -0.6982  0.6594 -0.5781
 2653SOL    HW114958   1.468   3.736   2.565 -0.9951  0.7795  0.2490
 2653SOL    HW214959   1.309   3.740   2.605 -1.3128  0.0300 -0.9036
 2654SOL     OW14960   2.892   4.373   0.655 -0.2935 -0.1673 -0.1014
 2654SOL    HW114961   2.948   4.320   0.592  2.2734  1.5647  0.6528
 2654SOL    HW214962   2.844   4.445   0.605  1.0881  0.6867 -0.2025
 2655SOL     OW14963   3.438   1.526   0.440  0.5638  0.2957  0.0897
 2655SOL    HW114964   3.419   1.579   0.357 -0.0446  0.2664  0.2133
 2655SOL    HW214965   3.380   1.559   0.515  1.6601  0.8458  0.7124
 2656SOL     OW14966   5.500   5.196   6.421  0.1179 -0.0060 -0.3270
 2656SOL    HW114967   5.578   5.222   6.478 -0.9299 -0.5006  1.3868
 2656SOL    HW214968   5.438   5.274   6.412  0.2231  0.0352 -0.6741
 2657SOL     OW14969   4.595   1.248   1.122  0.4429 -0.1579 -0.2255
 2657SOL    HW114970   4.524   1.318   1.116  0.0776 -0.5041  0.0348
 2657SOL    HW214971   4.609   1.221   1.217  0.2480 -0.7718 -0.3646
 2658SOL     OW14972   6.789   5.297   3.433  0.6190  0.2386 -0.6652
 2658SOL    HW114973   6.721   5.249   3.377  1.0052  0.7848 -1.6212
 2658SOL    HW214974   6.873   5.308   3.380  0.7719  1.3577 -0.2034
 2659SOL     OW14975   0.367   4.473   0.801  0.0178 -0.5679 -0.5016
 2659SOL    HW114976   0.416   4.513   0.877 -1.7497  0.1089  0.3160
 2659SOL    HW214977   0.295   4.536   0.770 -1.4536 -2.2065 -0.5406
 2660SOL     OW14978   2.060   0.383   1.981 -0.3372  0.0567 -0.4635
 2660SOL    HW114979   2.003   0.445   2.035  0.1450  0.4697 -0.4302
 2660SOL    HW214980   2.013   0.295   1.972 -0.6491  0.1520  0.1959
 2661SOL     OW14981   1.539   4.432   2.853 -0.0872 -0.9027 -0.1149
 2661SOL    HW114982   1.485   4.426   2.770 -2.1480  1.4279  0.9900
 2661SOL    HW214983   1.590   4.519   2.853  3.1905 -2.7272 -0.8098
 2662SOL     OW14984   4.154   4.684   5.265 -0.2548  0.3329 -0.4280
 2662SOL    HW114985   4.108   4.759   5.311 -0.0510 -1.0038  2.0123
 2662SOL    HW214986   4.252   4.686   5.285 -0.2994 -0.7762 -0.0584
 2663SOL     OW14987   3.889   6.499   2.176  0.6839  0.1768 -0.2158
 2663SOL    HW114988   3.851   6.506   2.084 -0.0369 -1.5034 -0.0608
 2663SOL    HW214989   3.821   6.459   2.238  1.9380 -0.8664  0.5415
 2664SOL     OW14990   3.560   0.266   0.186 -0.1545 -0.5571 -0.0774
 2664SOL    HW114991   3.522   0.327   0.256  1.2217 -0.0736  0.2498
 2664SOL    HW214992   3.645   0.226   0.219  1.1412  0.5907 -1.8994
 2665SOL     OW14993   1.989   4.201   4.906 -0.3614  0.6167  0.5073
 2665SOL    HW114994   1.982   4.300   4.915 -0.7983  0.7737 -1.2240
 2665SOL    HW214995   1.904   4.159   4.936 -0.7776  0.9039 -0.2402
 2666SOL     OW14996   1.636   2.093   3.109  0.0944  0.2010 -0.3571
 2666SOL    HW114997   1.735   2.080   3.111  0.2344  1.2533  1.2717
 2666SOL    HW214998   1.591   2.013   3.147  0.3202 -0.2663 -1.0696
 2667SOL     OW14999   5.174   4.374   0.324 -0.0125  0.0816  0.0671
 2667SOL    HW115000   5.263   4.332   0.342 -0.7684 -1.0063  1.3257
 2667SOL    HW215001   5.122   4.381   0.409 -1.8959 -1.0741 -0.9484
 2668SOL     OW15002   6.727   2.209   0.497 -0.1087  0.0273 -0.2032
 2668SOL    HW115003   6.785   2.283   0.463  1.1781 -0.9301 -0.1237
 2668SOL    HW215004   6.674   2.241   0.575  0.3754  0.8883 -0.2265
 2669SOL     OW15005   0.651   4.631   5.789  0.3031 -0.5424  0.2825
 2669SOL    HW115006   0.559   4.631   5.749 -0.2682  1.0803  1.5491
 2669SOL    HW215007   0.690   4.539   5.783 -1.4985 -1.3048 -0.0613
 2670SOL     OW15008   2.452   4.756   2.131  0.0841 -0.4163  0.1258
 2670SOL    HW115009   2.538   4.759   2.182  0.7523  0.2516 -1.0288
 2670SOL    HW215010   2.422   4.660   2.123  0.0261 -0.5454  1.6436
 2671SOL     OW15011   2.129   5.430   4.535  0.0741 -0.3345 -0.4411
 2671SOL    HW115012   2.104   5.519   4.573  0.7386 -0.7258  0.9506
 2671SOL    HW215013   2.211   5.440   4.479  2.2721 -0.6210  2.5812
 2672SOL     OW15014   2.342   0.424   7.074  0.0783 -0.2756 -0.6387
 2672SOL    HW115015   2.412   0.379   7.130  0.7875  1.0107 -0.4815
 2672SOL    HW215016   2.268   0.455   7.133 -0.3003 -1.0113 -0.7182
 2673SOL     OW15017   4.169   5.594   0.341 -0.6779  0.1708  0.2319
 2673SOL    HW115018   4.259   5.617   0.378  0.2121 -2.3100 -0.2991
 2673SOL    HW215019   4.101   5.599   0.414  0.1698  0.4690  1.0092
 2674SOL     OW15020   6.192   3.238   0.241  0.2716  0.0839  0.3296
 2674SOL    HW115021   6.103   3.204   0.272  0.3480 -0.8027 -0.4025
 2674SOL    HW215022   6.264   3.186   0.287  0.3896 -2.3819 -2.4776
 2675SOL     OW15023   4.290   2.854   5.033  0.2132  0.1231 -0.0997
 2675SOL    HW115024   4.298   2.782   5.102 -1.6581 -0.5337 -0.5415
 2675SOL    HW215025   4.358   2.839   4.962  0.9474 -0.2450  0.6742
 2676SOL     OW15026   6.301   6.893   6.424 -0.2687 -0.5378 -0.5995
 2676SOL    HW115027   6.362   6.964   6.461  0.6823 -1.3100 -0.6861
 2676SOL    HW215028   6.284   6.911   6.327  0.4675 -0.7892 -0.7689
 2677SOL     OW15029   0.647   3.575   0.484 -0.6697 -0.1303 -0.3502
 2677SOL    HW115030   0.606   3.600   0.396  0.2713  0.5326 -0.6066
 2677SOL    HW215031   0.674   3.658   0.533 -1.8038 -0.4674  0.8701
 2678SOL     OW15032   5.049   6.729   0.440 -0.1673  0.4587 -0.3952
 2678SOL    HW115033   4.955   6.745   0.472  0.7401  1.4215  1.8783
 2678SOL    HW215034   5.083   6.812   0.397  0.0421  0.4873 -0.1750
 2679SOL     OW15035   0.742   2.861   2.719  0.2150  0.2926  0.0219
 2679SOL    HW115036   0.707   2.871   2.626  0.5854 -2.3970 -0.4453
 2679SOL    HW215037   0.801   2.780   2.724 -1.6763 -0.9704  3.1396
 2680SOL     OW15038   0.862   4.008   4.343 -0.1458 -0.2706 -0.4853
 2680SOL    HW115039   0.850   3.917   4.303  3.1274 -0.4709 -1.0840
 2680SOL    HW215040   0.856   4.077   4.271  0.7587 -0.2584 -0.5456
 2681SOL     OW15041   5.308   2.303   5.183  0.1578  0.2652  0.2360
 2681SOL    HW115042   5.378   2.372   5.202 -1.0036  1.4656  0.1587
 2681SOL    HW215043   5.217   2.344   5.188 -0.6090 -1.4582  1.1582
 2682SOL     OW15044   1.041   3.066   1.866 -0.0551  0.9506  0.4064
 2682SOL    HW115045   0.947   3.102   1.870 -1.1363 -1.8548  2.1639
 2682SOL    HW215046   1.092   3.100   1.944  0.1838  1.8519 -0.1283
 2683SOL     OW15047   5.704   3.230   3.759  0.4140 -0.0419  0.3583
 2683SOL    HW115048   5.788   3.269   3.721  0.6458 -0.5981  0.2901
 2683SOL    HW215049   5.657   3.177   3.689 -0.1405  0.4880  0.3204
 2684SOL     OW15050   4.819   5.365   5.643  0.3317 -0.0469  0.7741
 2684SOL    HW115051   4.913   5.361   5.678  0.9718  0.1561 -0.8980
 2684SOL    HW215052   4.794   5.461   5.626  0.9091 -0.3197 -1.6728
 2685SOL     OW15053   3.173   3.292   4.915  0.3087 -0.5151 -0.6257
 2685SOL    HW115054   3.213   3.269   5.004 -0.9814  1.6529  0.5557
 2685SOL    HW215055   3.219   3.373   4.878 -0.6650 -0.0697 -0.8607
 2686SOL     OW15056   6.191   6.859   5.614 -0.3109  0.0666  0.3026
 2686SOL    HW115057   6.145   6.770   5.622 -3.8867  1.6503 -1.5672
 2686SOL    HW215058   6.230   6.867   5.523  0.3005  0.2973  0.5845
 2687SOL     OW15059   3.371   5.381   3.767 -0.2731  0.1424  0.1655
 2687SOL    HW115060   3.322   5.305   3.808  1.2934  0.3120  2.4804
 2687SOL    HW215061   3.463   5.351   3.739 -0.1229  0.8575 -0.1304
 2688SOL     OW15062   6.539   2.654   6.155  0.1663  0.3943 -0.5804
 2688SOL    HW115063   6.614   2.707   6.115  0.0049  1.1232  0.0598
 2688SOL    HW215064   6.485   2.714   6.215  0.2721 -0.6092  0.5395
 2689SOL     OW15065   3.770   6.962   1.875 -0.4292  0.0091 -0.0894
 2689SOL    HW115066   3.774   6.945   1.973 -0.3762  0.6432  0.0239
 2689SOL    HW215067   3.723   7.049   1.859  0.9711  0.6994 -0.5342
 2690SOL     OW15068   5.131   3.047   7.065 -0.5652 -0.0976 -0.4369
 2690SOL    HW115069   5.041   3.066   7.106  0.0176  1.7405  0.0574
 2690SOL    HW215070   5.119   3.000   6.978 -2.0306  0.4184 -0.5262
 2691SOL     OW15071   3.625   4.566   0.558 -0.9451  0.1068 -0.2150
 2691SOL    HW115072   3.575   4.528   0.636 -0.9040 -0.9666 -0.7071
 2691SOL    HW215073   3.563   4.576   0.480  0.0302 -3.2683 -1.5163
 2692SOL     OW15074   0.633   2.790   0.439 -0.5143 -0.1751  0.0268
 2692SOL    HW115075   0.660   2.855   0.510  0.4954 -0.0358 -0.4746
 2692SOL    HW215076   0.697   2.713   0.439  0.9281  0.9809 -2.3018
 2693SOL     OW15077   6.361   1.131   2.203 -0.8811 -0.2101  0.2858
 2693SOL    HW115078   6.302   1.199   2.247 -0.9376 -0.2483  0.2702
 2693SOL    HW215079   6.330   1.039   2.230 -0.3589 -0.2161  0.8844
 2694SOL     OW15080   6.753   0.670   5.315  0.1903 -0.2309 -0.0554
 2694SOL    HW115081   6.789   0.579   5.338  2.1106  0.3874 -0.5490
 2694SOL    HW215082   6.808   0.710   5.242 -1.1027  1.0363 -0.3489
 2695SOL     OW15083   1.361   2.585   6.852  0.5178  0.5985  0.0585
 2695SOL    HW115084   1.399   2.675   6.828  0.2541  0.3264 -1.4213
 2695SOL    HW215085   1.433   2.516   6.846  0.3784  0.4800 -0.2882
 2696SOL     OW15086   4.178   5.730   0.756  0.2535  0.0947  0.2448
 2696SOL    HW115087   4.169   5.817   0.708 -4.6743 -0.2570  0.2751
 2696SOL    HW215088   4.192   5.748   0.853 -1.8385  0.9444  0.4273
 2697SOL     OW15089   3.440   5.053   5.202  0.7376 -0.9242 -0.0317
 2697SOL    HW115090   3.442   5.018   5.296  2.6639  0.1302  0.3384
 2697SOL    HW215091   3.374   5.128   5.197  1.0930 -0.5611  0.6284
 2698SOL     OW15092   1.106   4.184   5.966  0.1778 -0.0275 -0.8900
 2698SOL    HW115093   1.083   4.141   6.054  1.6126 -1.0777 -1.0092
 2698SOL    HW215094   1.074   4.279   5.966 -0.5062 -0.2500  0.4867
 2699SOL     OW15095   6.323   1.448   0.625  0.5533 -0.1790  0.6650
 2699SOL    HW115096   6.266   1.372   0.655 -0.9993  0.1475 -1.3440
 2699SOL    HW215097   6.291   1.532   0.669 -0.6984  0.0430 -0.6412
 2700SOL     OW15098   2.558   1.942   7.016  0.1928  0.1272 -0.2935
 2700SOL    HW115099   2.491   1.869   7.028 -0.5286  1.0207  1.3618
 2700SOL    HW215100   2.595   1.969   7.106 -0.8707  2.9752 -0.6519
 2701SOL     OW15101   2.446   6.286   7.254 -0.9721 -0.4667 -0.3716
 2701SOL    HW115102   2.469   6.374   7.213 -1.8288 -0.1153 -0.1093
 2701SOL    HW215103   2.529   6.233   7.269 -0.1533  1.3659  1.9010
 2702SOL     OW15104   2.016   6.010   0.551  0.0297 -0.1768 -0.1288
 2702SOL    HW115105   2.022   6.035   0.455 -1.0640 -0.5447 -0.3017
 2702SOL    HW215106   1.927   5.968   0.569  0.9678 -1.8653  0.6365
 2703SOL     OW15107   5.872   1.787   2.352  0.0873  0.4919  0.4593
 2703SOL    HW115108   5.915   1.850   2.416  1.0106  0.1352  0.1948
 2703SOL    HW215109   5.917   1.698   2.356  1.1267  0.8803 -1.7323
 2704SOL     OW15110   0.362   3.786   5.639  0.0478  0.3612  0.3375
 2704SOL    HW115111   0.405   3.874   5.660 -0.7115  0.8979 -0.3235
 2704SOL    HW215112   0.276   3.802   5.590  0.2800 -0.7753 -0.4475
 2705SOL     OW15113   6.702   2.627   2.064  0.1895  0.3411 -0.3959
 2705SOL    HW115114   6.764   2.704   2.077  0.8246 -0.2191 -0.0853
 2705SOL    HW215115   6.635   2.626   2.138 -0.2851  1.0293 -0.8090
 2706SOL     OW15116   4.619   4.167   0.470 -0.3921 -0.0833 -0.6249
 2706SOL    HW115117   4.541   4.218   0.508  0.2709  0.8907 -0.5276
 2706SOL    HW215118   4.632   4.083   0.522 -0.1320  0.7405  0.6669
 2707SOL     OW15119   5.911   6.483   2.916 -0.0123 -0.2832  0.4772
 2707SOL    HW115120   5.832   6.497   2.975  0.1795 -1.9276  1.1482
 2707SOL    HW215121   5.888   6.417   2.844  0.2895  0.3810 -0.2335
 2708SOL     OW15122   0.304   2.424   2.559  0.6434  0.3942  0.2062
 2708SOL    HW115123   0.275   2.490   2.628  2.1012 -1.7102  2.9566
 2708SOL    HW215124   0.238   2.348   2.555 -0.2874  1.2806 -1.9191
 2709SOL     OW15125   3.557   6.256   6.194  0.3726  0.3196  0.0630
 2709SOL    HW115126   3.634   6.225   6.251  0.4429 -1.3761 -0.9029
 2709SOL    HW215127   3.591   6.281   6.103 -0.3643 -1.9028 -0.8741
 2710SOL     OW15128   6.242   3.908   2.922  0.1749 -0.0731 -0.0492
 2710SOL    HW115129   6.212   3.890   3.015  0.7090  1.0132  0.3472
 2710SOL    HW215130   6.260   3.821   2.875 -0.7141 -0.6359  0.6478
 2711SOL     OW15131   0.946   2.391   7.019  0.0453  0.5338 -0.7274
 2711SOL    HW115132   0.916   2.317   6.960  1.4407  0.1511 -0.9819
 2711SOL    HW215133   1.003   2.455   6.967 -1.3202  1.9266 -0.5726
 2712SOL     OW15134   6.073   1.406   2.168 -0.1269 -0.0063  0.2373
 2712SOL    HW115135   6.002   1.390   2.100 -1.1814  1.3937  0.9844
 2712SOL    HW215136   6.146   1.463   2.128  0.3305 -1.0038 -0.3664
 2713SOL     OW15137   5.296   0.050   6.048 -0.3867  0.0125  0.0863
 2713SOL    HW115138   5.246  -0.022   6.096  0.4889 -0.2608  0.5881
 2713SOL    HW215139   5.350   0.011   5.974 -0.2220  0.2030  0.1044
 2714SOL     OW15140   2.438   1.080   0.859  0.1119  0.1829  0.1219
 2714SOL    HW115141   2.432   0.985   0.890 -1.2974 -0.0583 -0.8471
 2714SOL    HW215142   2.481   1.135   0.930  0.1156 -1.0091  1.0670
 2715SOL     OW15143   4.575   6.828   7.351 -0.2429  0.1343 -0.2981
 2715SOL    HW115144   4.576   6.783   7.261 -1.9420 -0.8900  0.1876
 2715SOL    HW215145   4.668   6.830   7.388  0.4917  0.6481 -2.1140
 2716SOL     OW15146   4.782   2.501   4.252  0.4989 -0.2963  0.3315
 2716SOL    HW115147   4.881   2.493   4.251  0.3722 -1.9693  0.0798
 2716SOL    HW215148   4.752   2.561   4.178  1.4032  1.2784  1.2266
 2717SOL     OW15149   4.988   7.164   7.136 -0.1386  0.8371  0.1653
 2717SOL    HW115150   4.940   7.122   7.059  0.5827 -1.2650  0.8308
 2717SOL    HW215151   5.069   7.211   7.103  0.3673 -0.3718 -0.3272
 2718SOL     OW15152   6.333   6.475   4.414 -0.0951  0.1874  0.0913
 2718SOL    HW115153   6.400   6.542   4.444 -0.1383  1.7271 -3.0640
 2718SOL    HW215154   6.254   6.522   4.375 -1.9878 -1.6489  1.5611
 2719SOL     OW15155   5.218   4.478   4.225 -0.3513 -0.8067  0.0910
 2719SOL    HW115156   5.124   4.495   4.195 -0.6753 -2.0676  0.3693
 2719SOL    HW215157   5.230   4.380   4.241  1.3030 -0.7903 -0.9545
 2720SOL     OW15158   5.724   4.137   1.275  0.4467 -0.1003 -0.4139
 2720SOL    HW115159   5.695   4.231   1.258 -0.4205 -0.5126 -1.2326
 2720SOL    HW215160   5.821   4.127   1.250  0.1764  0.2344 -1.6527
 2721SOL     OW15161   2.720   5.065   4.987 -0.0597 -0.1180 -0.1356
 2721SOL    HW115162   2.712   4.965   4.980 -1.4180 -0.0512  0.2490
 2721SOL    HW215163   2.768   5.089   5.071  0.0451 -0.4476 -0.1011
 2722SOL     OW15164   2.752   1.303   6.976  0.5641  0.0104  0.3547
 2722SOL    HW115165   2.764   1.341   7.068 -0.4649 -0.6135  0.7486
 2722SOL    HW215166   2.661   1.264   6.967  0.3505  0.8147 -1.2162
 2723SOL     OW15167   5.423   3.313   6.395 -0.1443 -0.2219  0.0518
 2723SOL    HW115168   5.387   3.327   6.302  0.7257 -1.1071 -0.4270
 2723SOL    HW215169   5.347   3.291   6.456 -0.7071  0.2074 -0.4811
 2724SOL     OW15170   3.132   3.944   5.180  0.1947 -0.2557  0.3360
 2724SOL    HW115171   3.103   4.022   5.234 -1.3375  0.5214 -1.5542
 2724SOL    HW215172   3.161   3.870   5.240 -1.2495  0.6654  2.1979
 2725SOL     OW15173   0.062   5.034   6.008  0.1671  0.3435  0.3380
 2725SOL    HW115174  -0.018   5.082   6.044 -0.7436 -0.3854 -0.6457
 2725SOL    HW215175   0.111   5.094   5.944 -1.3985 -0.2748 -1.4728
 2726SOL     OW15176   2.187   2.980   0.436  0.2454 -0.3473 -0.1389
 2726SOL    HW115177   2.103   2.991   0.384 -2.4011  0.3451  4.1165
 2726SOL    HW215178   2.193   2.887   0.472  1.6448 -0.5784 -0.9022
 2727SOL     OW15179   2.474   0.945   5.724  0.2034  0.1109  0.1312
 2727SOL    HW115180   2.439   0.989   5.806 -0.5369  0.2483 -0.2514
 2727SOL    HW215181   2.572   0.964   5.714  0.2980  0.0576  0.9973
 2728SOL     OW15182   3.359   1.444   3.015 -0.3267 -0.1107  0.4641
 2728SOL    HW115183   3.370   1.371   2.947  1.7859  2.8054 -2.4506
 2728SOL    HW215184   3.272   1.491   2.999  0.0199  0.3729  0.0370
 2729SOL     OW15185   3.053   2.755   1.563  0.2205 -0.1929  0.5613
 2729SOL    HW115186   2.984   2.799   1.620  0.3587 -2.4963  2.5936
 2729SOL    HW215187   3.105   2.691   1.618  2.5601 -0.0821 -1.4578
 2730SOL     OW15188   7.303   1.996   0.668 -0.6317  0.4982 -0.4412
 2730SOL    HW115189   7.372   2.065   0.648 -0.5134  0.3657 -0.4913
 2730SOL    HW215190   7.318   1.916   0.611 -0.9158  0.5249 -0.5557
 2731SOL     OW15191   3.456   5.612   1.596 -0.1876 -0.6505 -0.4744
 2731SOL    HW115192   3.375   5.626   1.538  0.2523  1.0453 -0.7025
 2731SOL    HW215193   3.451   5.521   1.638 -1.5508 -1.0884 -1.5242
 2732SOL     OW15194   5.301   4.214   6.632  0.1428  0.1543  0.4279
 2732SOL    HW115195   5.259   4.142   6.576  0.9495 -0.9778  1.2513
 2732SOL    HW215196   5.258   4.302   6.611  1.3143  0.0185 -2.9216
 2733SOL     OW15197   5.836   2.395   0.222  0.3646 -0.2189 -0.2000
 2733SOL    HW115198   5.749   2.362   0.186 -0.0187  0.3907  0.1566
 2733SOL    HW215199   5.904   2.397   0.148  0.0362 -0.5400 -0.5129
 2734SOL     OW15200   5.067   5.007   5.413 -0.0491 -0.3161 -0.2231
 2734SOL    HW115201   5.009   4.934   5.448  0.7751 -1.0596 -0.4036
 2734SOL    HW215202   5.162   4.980   5.418  0.3871  1.3366  1.1317
 2735SOL     OW15203   3.903   4.348   3.946 -0.1606  0.5074  0.3601
 2735SOL    HW115204   3.970   4.293   3.997  0.0588  1.8930  1.6061
 2735SOL    HW215205   3.942   4.374   3.858  0.4148  0.1497  0.5058
 2736SOL     OW15206   6.247   6.084   5.277 -0.8130 -0.8177 -0.0185
 2736SOL    HW115207   6.310   6.033   5.335  0.4068 -1.5464 -1.9518
 2736SOL    HW215208   6.158   6.039   5.278 -0.6065 -1.2275  0.7030
 2737SOL     OW15209   4.534   1.623   6.375 -0.1182  0.3980 -0.3784
 2737SOL    HW115210   4.515   1.525   6.379  1.8835  0.0473  1.4675
 2737SOL    HW215211   4.493   1.668   6.454 -0.3330  0.9329 -0.7905
 2738SOL     OW15212   1.181   0.701   6.623  0.6078  0.1146 -0.0155
 2738SOL    HW115213   1.213   0.651   6.543  0.3332 -0.4644  0.2335
 2738SOL    HW215214   1.084   0.723   6.613  1.1988  2.3915 -1.0369
 2739SOL     OW15215   3.689   4.750   5.293  0.4477  0.1530  0.1891
 2739SOL    HW115216   3.688   4.692   5.375  3.2602  0.7620  0.7329
 2739SOL    HW215217   3.757   4.715   5.228  2.7236  3.1260  0.8276
 2740SOL     OW15218   3.923   5.938   0.943 -0.0633  0.2974 -1.1838
 2740SOL    HW115219   3.914   5.838   0.950  0.9720  0.2587 -0.2914
 2740SOL    HW215220   3.840   5.981   0.979 -0.2583 -0.2263 -0.9919
 2741SOL     OW15221   0.821   5.207   1.556  0.0836  0.6297 -0.1225
 2741SOL    HW115222   0.733   5.215   1.510  0.9258  2.4650 -1.4775
 2741SOL    HW215223   0.840   5.291   1.608 -0.1349 -0.7860  2.3620
 2742SOL     OW15224   4.554   0.764   1.804  0.1027 -0.2245 -0.2585
 2742SOL    HW115225   4.572   0.763   1.903 -0.6250 -1.8405 -0.1367
 2742SOL    HW215226   4.636   0.794   1.756  1.2098 -1.6207  0.7054
 2743SOL     OW15227   0.380   2.259   0.819  0.7724 -0.1165 -0.3304
 2743SOL    HW115228   0.480   2.260   0.824  0.6729 -0.2876  3.4754
 2743SOL    HW215229   0.348   2.164   0.824  0.3732  0.0652  0.6483
 2744SOL     OW15230   1.160   3.208   4.446  0.2212  0.5273 -0.0662
 2744SOL    HW115231   1.246   3.165   4.418 -1.5030 -1.9667 -1.7323
 2744SOL    HW215232   1.129   3.269   4.373  1.9776  3.7749  1.7435
 2745SOL     OW15233   6.212   6.299   7.063  0.3478  0.4058  0.8092
 2745SOL    HW115234   6.144   6.300   7.136  0.4349  1.6383  0.8863
 2745SOL    HW215235   6.166   6.296   6.975  0.2004  0.7200  0.8740
 2746SOL     OW15236   0.995   2.521   0.099 -0.0438  0.3495  0.3933
 2746SOL    HW115237   0.966   2.434   0.140  1.0755  0.1520  0.7709
 2746SOL    HW215238   0.933   2.543   0.024 -0.5919 -0.5664  0.5571
 2747SOL     OW15239   5.151   6.992   1.020  0.3871 -0.2303  0.6673
 2747SOL    HW115240   5.085   6.995   0.945  1.0049  0.6347  0.1510
 2747SOL    HW215241   5.227   7.055   1.001  1.8686 -1.9193  0.7735
 2748SOL     OW15242   3.599   1.871   2.058 -0.3562 -0.3045  0.1655
 2748SOL    HW115243   3.649   1.944   2.105 -0.1525 -0.3962  0.0925
 2748SOL    HW215244   3.562   1.905   1.972 -0.8504 -0.0956  0.4550
 2749SOL     OW15245   5.911   2.150   3.972  0.2554 -0.5970  0.0606
 2749SOL    HW115246   5.830   2.208   3.961 -0.2988 -1.3275  0.2556
 2749SOL    HW215247   5.988   2.207   3.999 -0.5088 -0.0654  1.1957
 2750SOL     OW15248   2.474   5.598   5.864 -0.0308  0.0469  0.0856
 2750SOL    HW115249   2.446   5.646   5.781  3.2901  0.5734 -0.7994
 2750SOL    HW215250   2.417   5.516   5.876 -2.1287  1.2338 -1.3649
 2751SOL     OW15251   5.471   7.078   1.891  1.0415 -0.3634  0.3998
 2751SOL    HW115252   5.447   7.153   1.829  0.0262 -1.5164 -0.6317
 2751SOL    HW215253   5.422   6.995   1.864  2.5702 -1.5523  1.1929
 2752SOL     OW15254   3.444   5.465   2.605 -0.2991  0.1251 -0.2577
 2752SOL    HW115255   3.460   5.424   2.516 -1.8174  1.3467 -1.1281
 2752SOL    HW215256   3.374   5.413   2.654  0.0440 -0.1514 -0.0612
 2753SOL     OW15257   1.710   4.994   2.779  0.3848 -1.1612 -0.4251
 2753SOL    HW115258   1.779   4.946   2.833  0.3305 -0.9513 -0.1678
 2753SOL    HW215259   1.645   5.039   2.840 -1.3689 -3.3163 -0.6303
 2754SOL     OW15260   1.267   7.294   5.435 -0.2940  0.5700 -0.2690
 2754SOL    HW115261   1.303   7.252   5.518  0.6806  0.6080 -0.6644
 2754SOL    HW215262   1.317   7.259   5.355  1.1285  3.1004 -0.5358
 2755SOL     OW15263   7.051   4.051   0.938 -0.2473 -0.3089  0.3713
 2755SOL    HW115264   7.107   4.047   1.021 -0.8816 -0.1557  0.8110
 2755SOL    HW215265   7.111   4.053   0.858  0.3909  0.4727  0.8562
 2756SOL     OW15266   3.996   0.395   1.422 -0.0036  0.5547  0.1335
 2756SOL    HW115267   4.050   0.450   1.360 -0.2899  2.2952  1.3778
 2756SOL    HW215268   4.047   0.313   1.449  0.4054  0.1764 -1.7678
 2757SOL     OW15269   3.496   2.879   1.898  0.1274  0.4342 -0.1929
 2757SOL    HW115270   3.526   2.823   1.975 -2.1151  0.6252  0.8550
 2757SOL    HW215271   3.403   2.853   1.871 -0.3027  2.4782 -0.8004
 2758SOL     OW15272   3.217   2.679   6.345  0.4548 -0.1809 -0.6053
 2758SOL    HW115273   3.240   2.602   6.286 -1.1865 -1.7360  0.7256
 2758SOL    HW215274   3.151   2.650   6.414 -0.3293  2.4661 -0.1658
 2759SOL     OW15275   6.103   3.325   6.446  0.1857  0.2497  0.6488
 2759SOL    HW115276   6.070   3.381   6.370  1.0261  1.3433  1.0810
 2759SOL    HW215277   6.127   3.234   6.412 -0.6079  0.3314 -0.1664
 2760SOL     OW15278   0.908   5.246   6.393  0.0098  0.0988  0.0876
 2760SOL    HW115279   0.960   5.168   6.429  0.2823 -0.3781 -1.2937
 2760SOL    HW215280   0.932   5.328   6.445  0.4424 -0.5467  0.9376
 2761SOL     OW15281   2.008   4.077   0.711  0.3548  0.1377 -0.2499
 2761SOL    HW115282   1.916   4.105   0.739  0.7228  0.4064  0.7050
 2761SOL    HW215283   2.074   4.105   0.781  0.7841 -2.9607  0.6398
 2762SOL     OW15284   1.885   2.518   0.434 -0.3850 -0.0744  0.2381
 2762SOL    HW115285   1.798   2.469   0.441 -0.8183  0.6144 -0.3211
 2762SOL    HW215286   1.907   2.559   0.522 -1.4561  1.1520 -0.0640
 2763SOL     OW15287   4.873   0.273   3.974  0.3328  0.3560 -0.0571
 2763SOL    HW115288   4.922   0.201   3.925 -2.2956  0.9982 -3.8831
 2763SOL    HW215289   4.913   0.362   3.951  0.8029  0.4855  1.2043
 2764SOL     OW15290   1.692   3.777   3.690  0.3035  0.0707  0.8020
 2764SOL    HW115291   1.739   3.827   3.762 -0.2750  1.4725  0.2323
 2764SOL    HW215292   1.593   3.795   3.696  0.1743 -0.4013  0.1322
 2765SOL     OW15293   4.876   4.176   5.687 -0.5288  0.5002  0.3877
 2765SOL    HW115294   4.889   4.230   5.604  0.2350  1.2696  1.0044
 2765SOL    HW215295   4.822   4.095   5.666  0.6814  0.0706 -1.1074
 2766SOL     OW15296   5.620   4.380   2.790 -0.2460  0.0039  0.3743
 2766SOL    HW115297   5.706   4.363   2.742 -0.4540 -3.2342  1.0483
 2766SOL    HW215298   5.546   4.330   2.746 -1.7039  2.1837  0.2441
 2767SOL     OW15299   0.725   5.272   5.110  0.0716  0.0951  0.0306
 2767SOL    HW115300   0.717   5.369   5.087 -0.1322  0.2633  0.7869
 2767SOL    HW215301   0.635   5.238   5.140 -0.3040 -0.8103 -2.0521
 2768SOL     OW15302   3.886   5.593   3.550 -0.3523 -0.3104  0.2008
 2768SOL    HW115303   3.922   5.596   3.457  0.5453  0.9749  0.5739
 2768SOL    HW215304   3.945   5.647   3.610 -2.8172  1.7272  0.8738
 2769SOL     OW15305   6.885   0.751   7.252  0.1590 -0.0938  0.8240
 2769SOL    HW115306   6.850   0.674   7.198 -1.0842 -0.9172  2.7619
 2769SOL    HW215307   6.875   0.836   7.199 -2.1691 -0.7078  0.2394
 2770SOL     OW15308   3.628   5.064   5.728 -0.2615 -0.5988  0.0042
 2770SOL    HW115309   3.596   5.155   5.703  1.6163 -0.0024 -0.2894
 2770SOL    HW215310   3.665   5.066   5.821 -1.3377 -1.3567  0.4649
 2771SOL     OW15311   6.033   4.212   0.864  0.2343 -0.3347 -0.3512
 2771SOL    HW115312   6.063   4.168   0.779 -0.6529  0.2697 -0.9839
 2771SOL    HW215313   6.065   4.159   0.942  1.4626 -0.6420 -1.0544
 2772SOL     OW15314   4.092   2.102   4.895 -0.4225 -0.2904 -0.1474
 2772SOL    HW115315   4.114   2.130   4.989 -2.1401 -0.5254  0.3506
 2772SOL    HW215316   4.165   2.046   4.858  0.5534  0.3296  0.8329
 2773SOL     OW15317   2.737   5.747   7.352  0.4013  0.0501 -0.6644
 2773SOL    HW115318   2.764   5.736   7.448 -0.7917 -2.0598 -0.5396
 2773SOL    HW215319   2.789   5.684   7.295 -0.8761 -0.7188 -1.0120
 2774SOL     OW15320   5.242   6.731   6.280  0.0862 -0.1168 -0.1573
 2774SOL    HW115321   5.301   6.652   6.264  1.1905  0.6981 -0.1592
 2774SOL    HW215322   5.195   6.722   6.368  0.6087 -0.5254  0.0749
 2775SOL     OW15323   1.971   1.989   6.414  0.4255  0.2331 -0.0940
 2775SOL    HW115324   2.060   1.952   6.392  0.7914  1.9616 -1.6714
 2775SOL    HW215325   1.960   1.993   6.513  1.1973 -2.0232  0.1063
 2776SOL     OW15326   3.801   4.239   6.740 -0.3448  0.6567 -0.4713
 2776SOL    HW115327   3.885   4.291   6.756  0.4612 -0.2347 -1.7149
 2776SOL    HW215328   3.808   4.150   6.784 -1.0673  0.9444  0.2636
 2777SOL     OW15329   6.181   4.034   6.360  0.0707  0.4906  0.7173
 2777SOL    HW115330   6.275   4.056   6.390  0.1579 -1.2214  1.7794
 2777SOL    HW215331   6.117   4.095   6.407  0.6899  2.2556 -0.6678
 2778SOL     OW15332   7.335   5.582   5.997  0.2211 -0.1608  0.3632
 2778SOL    HW115333   7.345   5.536   5.909 -2.0398  0.3532 -0.2144
 2778SOL    HW215334   7.398   5.660   6.002  0.8999 -0.6495 -0.4755
 2779SOL     OW15335   6.139   1.480   3.003 -0.6908  0.3495 -0.0121
 2779SOL    HW115336   6.042   1.497   2.983 -0.9619 -1.1826 -0.0437
 2779SOL    HW215337   6.183   1.443   2.921 -0.3761 -0.1434  0.3812
 2780SOL     OW15338   5.278   0.711   2.465 -0.5894 -0.3087 -0.7018
 2780SOL    HW115339   5.210   0.741   2.531  0.9983 -0.7945  1.1890
 2780SOL    HW215340   5.292   0.613   2.473  1.4398  0.0168 -0.0058
 2781SOL     OW15341   5.198   7.109   3.764  0.0217 -0.2894 -0.1214
 2781SOL    HW115342   5.171   7.183   3.825 -1.9611 -0.3714 -0.8615
 2781SOL    HW215343   5.290   7.078   3.788 -0.4948  0.0349  2.4683
 2782SOL     OW15344   4.056   3.984   4.582  0.0239  0.0240 -0.0695
 2782SOL    HW115345   4.019   4.016   4.495  1.0280  0.4633 -0.3453
 2782SOL    HW215346   4.043   3.885   4.590 -0.7634  0.1003 -0.3675
 2783SOL     OW15347   6.932   6.358   5.928 -0.2027 -0.5086  0.1689
 2783SOL    HW115348   7.014   6.409   5.955  0.0519 -1.3477  0.9702
 2783SOL    HW215349   6.950   6.308   5.843  0.2709 -1.0971  0.6197
 2784SOL     OW15350   0.876   4.179   3.820 -0.3353 -0.0171 -0.1455
 2784SOL    HW115351   0.802   4.170   3.886  0.8941 -2.5069  0.9408
 2784SOL    HW215352   0.861   4.116   3.744  0.9160 -0.8809  0.3204
 2785SOL     OW15353   0.715   2.497   4.735 -0.1722  0.1497  0.3931
 2785SOL    HW115354   0.807   2.457   4.732  0.0186  0.6153 -0.0877
 2785SOL    HW215355   0.650   2.435   4.691  0.5157  1.3763 -2.4801
 2786SOL     OW15356   4.610   2.979   7.244 -0.3852  0.2864 -0.2258
 2786SOL    HW115357   4.512   2.997   7.234 -0.0997  0.9413 -2.0680
 2786SOL    HW215358   4.641   3.013   7.332 -1.1914  3.0732 -0.9676
 2787SOL     OW15359   1.304   3.208   6.411  0.0711 -0.1760  0.1064
 2787SOL    HW115360   1.402   3.189   6.401 -0.1519 -0.7088 -1.2015
 2787SOL    HW215361   1.279   3.286   6.354 -0.8051 -1.8687 -1.9043
 2788SOL     OW15362   0.579   4.176   6.602 -0.8688 -0.3790  0.0222
 2788SOL    HW115363   0.643   4.120   6.654 -1.1800 -0.6394  0.1258
 2788SOL    HW215364   0.629   4.243   6.548 -0.4396 -1.3812 -0.8331
 2789SOL     OW15365   6.390   2.067   0.745  0.2383  0.0629  0.1743
 2789SOL    HW115366   6.397   2.077   0.645  1.0453 -3.3017 -0.1811
 2789SOL    HW215367   6.294   2.060   0.771 -0.0709  2.7789 -0.1243
 2790SOL     OW15368   1.905   4.901   7.245  0.3769  0.2942  0.2790
 2790SOL    HW115369   1.995   4.876   7.210 -0.2651  1.8369 -2.6252
 2790SOL    HW215370   1.905   4.997   7.273 -0.4772  0.4533 -0.2281
 2791SOL     OW15371   4.528   5.527   6.682  0.0356 -0.1750  0.2759
 2791SOL    HW115372   4.508   5.430   6.670  0.4572 -0.0701 -1.4041
 2791SOL    HW215373   4.453   5.571   6.731 -0.9980 -0.9780 -0.5734
 2792SOL     OW15374   6.412   6.114   2.632  0.7133  0.6293  0.2188
 2792SOL    HW115375   6.366   6.135   2.545  1.0123  0.8596  0.1132
 2792SOL    HW215376   6.392   6.185   2.698 -0.9495 -0.4498  0.8961
 2793SOL     OW15377   2.293   3.890   3.738  0.4149  0.0539 -0.2601
 2793SOL    HW115378   2.360   3.948   3.693  1.8856 -1.3093  0.1235
 2793SOL    HW215379   2.231   3.946   3.793  0.1368  1.4844 -2.0033
 2794SOL     OW15380   5.349   5.577   7.152 -0.8753 -0.3122  0.4785
 2794SOL    HW115381   5.380   5.505   7.214 -2.2419 -1.1214  0.2660
 2794SOL    HW215382   5.265   5.618   7.187 -1.7551 -0.8864 -0.8743
 2795SOL     OW15383   6.838   4.880   2.173 -0.3184 -0.0563  0.2392
 2795SOL    HW115384   6.931   4.862   2.206  0.0437 -0.4792 -0.9759
 2795SOL    HW215385   6.781   4.800   2.188  0.0736 -0.5657 -0.9220
 2796SOL     OW15386   1.676   5.832   3.464  0.1852 -0.3500 -0.2660
 2796SOL    HW115387   1.595   5.885   3.438  0.7184  0.1849 -0.8576
 2796SOL    HW215388   1.664   5.795   3.556 -0.2345  0.7228  0.1124
 2797SOL     OW15389   5.926   1.803   3.379 -0.3379 -0.4399  0.0559
 2797SOL    HW115390   6.007   1.860   3.396 -0.3521 -0.2765 -0.4221
 2797SOL    HW215391   5.844   1.855   3.403 -0.2280 -1.2618  2.3477
 2798SOL     OW15392   2.623   5.922   0.364 -0.4304  0.3057  0.0792
 2798SOL    HW115393   2.617   6.021   0.358 -0.7150  0.3191  0.5817
 2798SOL    HW215394   2.567   5.889   0.440  0.1201 -0.1854  0.2854
 2799SOL     OW15395   3.381   0.288   4.539 -0.0588 -0.0797 -0.3934
 2799SOL    HW115396   3.380   0.310   4.636  1.0423  0.2369 -0.4476
 2799SOL    HW215397   3.385   0.188   4.527 -0.9529 -0.1545 -0.1296
 2800SOL     OW15398   1.137   3.085   7.182 -0.2418  0.6821 -0.7247
 2800SOL    HW115399   1.042   3.115   7.183  0.1701  2.0057  1.3776
 2800SOL    HW215400   1.196   3.160   7.211  1.3977 -0.3146 -1.4274
 2801SOL     OW15401   2.525   3.309   3.222 -0.0533  0.3175  0.2315
 2801SOL    HW115402   2.622   3.297   3.202 -0.5702 -0.2880 -2.0832
 2801SOL    HW215403   2.491   3.390   3.174 -0.4764  1.0935  1.8254
 2802SOL     OW15404   6.109   7.034   3.260 -0.0953 -0.0668  0.3809
 2802SOL    HW115405   6.128   7.060   3.355  0.2371 -0.5513  0.4494
 2802SOL    HW215406   6.190   7.049   3.204  0.0442 -0.7568  0.3839
 2803SOL     OW15407   4.125   2.406   5.344 -0.7151 -0.0040 -0.4457
 2803SOL    HW115408   4.181   2.487   5.365  1.7000 -1.4022 -1.2688
 2803SOL    HW215409   4.099   2.409   5.247 -1.3943  0.2550 -0.2525
 2804SOL     OW15410   0.185   5.750   5.474 -0.3128  0.7026  0.1369
 2804SOL    HW115411   0.107   5.793   5.429  0.8571  0.6668 -2.0202
 2804SOL    HW215412   0.248   5.821   5.506 -0.2999  0.6998  0.1189
 2805SOL     OW15413   1.081   2.563   6.828 -0.4786  0.7070 -0.7732
 2805SOL    HW115414   1.037   2.639   6.778  0.1500 -0.2531 -2.8568
 2805SOL    HW215415   1.180   2.572   6.821 -0.3988 -0.5550 -1.4763
 2806SOL     OW15416   4.689   5.009   0.880 -0.6431  0.5154 -0.0579
 2806SOL    HW115417   4.600   5.047   0.854 -0.6699  0.5675  0.1137
 2806SOL    HW215418   4.723   4.951   0.805 -1.8882 -1.3840  0.8023
 2807SOL     OW15419   1.216   0.763   2.267  0.4337  0.3097  0.3599
 2807SOL    HW115420   1.236   0.799   2.359  0.4636 -0.3571  0.6114
 2807SOL    HW215421   1.174   0.673   2.275 -1.3782  1.0743 -0.2166
 2808SOL     OW15422   2.861   4.787   4.708  0.1837  0.1256 -0.1697
 2808SOL    HW115423   2.876   4.688   4.704 -0.6408 -0.0227  0.2043
 2808SOL    HW215424   2.881   4.827   4.619 -0.3833 -0.5179 -0.5993
 2809SOL     OW15425   2.782   5.615   6.304  0.6297 -0.6989 -0.2757
 2809SOL    HW115426   2.751   5.662   6.386  1.9241 -0.8558  0.3124
 2809SOL    HW215427   2.707   5.612   6.237 -0.1925  0.0911  0.5918
 2810SOL     OW15428   6.654   1.907   2.157 -0.5826 -0.4042 -0.0718
 2810SOL    HW115429   6.602   1.853   2.223 -0.1861 -2.7269 -1.5988
 2810SOL    HW215430   6.741   1.861   2.137 -0.2624  0.7553 -1.4858
 2811SOL     OW15431   5.516   4.932   0.784  0.1276 -0.4852 -0.0882
 2811SOL    HW115432   5.533   4.866   0.711 -0.6994  0.2296 -0.9383
 2811SOL    HW215433   5.549   5.022   0.755  1.2960 -0.5130  1.0833
 2812SOL     OW15434   3.460   5.429   4.818  0.0711  0.0680 -0.1319
 2812SOL    HW115435   3.519   5.461   4.892  1.0978 -1.0230 -0.4764
 2812SOL    HW215436   3.485   5.476   4.733 -0.2391  0.3562 -0.0652
 2813SOL     OW15437   3.557   0.422   4.366 -0.9302 -0.1941 -0.5998
 2813SOL    HW115438   3.583   0.348   4.303 -0.7354 -0.0946 -0.6339
 2813SOL    HW215439   3.506   0.383   4.443  0.6819 -0.5936  0.2891
 2814SOL     OW15440   6.611   2.476   2.594 -0.0185  0.0145 -0.5942
 2814SOL    HW115441   6.589   2.415   2.519 -0.4502  1.4880 -1.6867
 2814SOL    HW215442   6.533   2.536   2.613 -0.2524 -0.9714  1.6502
 2815SOL     OW15443   5.209   2.080   5.373  0.3739 -1.1316 -0.5494
 2815SOL    HW115444   5.265   2.130   5.308  0.9692  0.0791  0.8817
 2815SOL    HW215445   5.231   1.982   5.368  1.1094 -0.9252 -1.4595
 2816SOL     OW15446   3.723   2.904   0.215  0.0229  0.3431  0.0551
 2816SOL    HW115447   3.732   2.966   0.138  2.1499 -0.0772 -0.0581
 2816SOL    HW215448   3.809   2.900   0.266 -1.1276  0.0753  2.0492
 2817SOL     OW15449   2.162   2.660   2.875 -0.2682 -0.2014 -0.0253
 2817SOL    HW115450   2.073   2.706   2.886 -0.8260 -1.2690  0.0452
 2817SOL    HW215451   2.159   2.602   2.793  1.1403  1.4990 -1.3149
 2818SOL     OW15452   4.170   3.289   6.917 -0.0301 -0.7406  0.6555
 2818SOL    HW115453   4.131   3.228   6.848  1.3204  1.1125 -1.8283
 2818SOL    HW215454   4.108   3.366   6.932  0.0672 -0.7131  0.9193
 2819SOL     OW15455   3.514   4.885   4.212  0.1132  0.6287 -0.2993
 2819SOL    HW115456   3.585   4.820   4.240  0.1433  1.3941  1.4595
 2819SOL    HW215457   3.441   4.886   4.280 -1.0449  0.6803 -1.5376
 2820SOL     OW15458   2.733   5.207   0.239  0.8189 -0.0660  0.0557
 2820SOL    HW115459   2.815   5.159   0.269  1.2260  1.0097  0.6960
 2820SOL    HW215460   2.755   5.266   0.161  0.7911  0.6597  0.5888
 2821SOL     OW15461   0.936   5.983   0.047 -0.5281 -0.1389 -0.2165
 2821SOL    HW115462   0.836   5.984   0.050 -0.6407 -0.3410 -2.6611
 2821SOL    HW215463   0.971   5.905   0.100 -1.7919 -1.5140 -1.3579
 2822SOL     OW15464   1.604   2.004   1.925  0.5485 -0.1305 -0.0685
 2822SOL    HW115465   1.570   1.942   1.854  1.0875 -0.7152  0.1764
 2822SOL    HW215466   1.635   2.089   1.882  0.1419 -0.1700 -0.4468
 2823SOL     OW15467   4.868   1.532   6.528  0.4283  0.6449 -0.3134
 2823SOL    HW115468   4.861   1.447   6.476 -0.3209  0.7639 -0.4187
 2823SOL    HW215469   4.831   1.607   6.474 -0.9125  0.6707  0.5947
 2824SOL     OW15470   7.140   4.931   0.487 -0.1523  0.1165  0.1809
 2824SOL    HW115471   7.221   4.932   0.545  0.0371 -1.3234 -0.0433
 2824SOL    HW215472   7.126   4.839   0.451 -2.1371  0.2329  0.5756
 2825SOL     OW15473   0.508   5.221   5.288  0.1259 -0.3126 -0.0936
 2825SOL    HW115474   0.552   5.282   5.355  0.9794 -1.1302  0.1066
 2825SOL    HW215475   0.456   5.151   5.337 -0.4584 -0.0307 -0.3142
 2826SOL     OW15476   5.988   7.350   4.336 -0.1629  0.2469 -0.1064
 2826SOL    HW115477   5.993   7.257   4.299  0.7715  0.2281  0.0619
 2826SOL    HW215478   5.952   7.412   4.266 -0.7713 -0.2328 -0.2275
 2827SOL     OW15479   2.026   6.677   2.016 -0.0299  0.1578  0.1748
 2827SOL    HW115480   1.930   6.684   1.992  0.3677  0.5023 -1.3824
 2827SOL    HW215481   2.074   6.626   1.944  0.7465 -1.0054  1.4871
 2828SOL     OW15482   1.575   3.775   1.579 -0.7507 -0.0724 -0.2296
 2828SOL    HW115483   1.545   3.761   1.673  1.4115  2.0106  0.8241
 2828SOL    HW215484   1.502   3.819   1.527 -1.8836 -1.0623  0.5021
 2829SOL     OW15485   4.187   5.890   4.661 -0.5160  0.6110 -0.3560
 2829SOL    HW115486   4.198   5.813   4.724  0.3995  0.2059 -0.9998
 2829SOL    HW215487   4.101   5.879   4.610  0.6065 -1.1274 -1.9668
 2830SOL     OW15488   3.725   1.415   3.150 -0.3131 -0.4593 -0.4171
 2830SOL    HW115489   3.672   1.497   3.129 -0.4180 -0.7747 -1.4381
 2830SOL    HW215490   3.817   1.424   3.114 -0.0865 -0.4761  0.1495
 2831SOL     OW15491   2.013   5.223   3.308  0.3871  0.0076  0.4477
 2831SOL    HW115492   2.039   5.313   3.272  0.7195 -0.7921 -1.3679
 2831SOL    HW215493   1.929   5.232   3.362 -0.3332  1.2207 -0.8199
 2832SOL     OW15494   5.588   7.166   0.775 -0.2986  0.3452 -0.0948
 2832SOL    HW115495   5.621   7.181   0.682 -2.0452  0.3337 -0.7514
 2832SOL    HW215496   5.559   7.254   0.814 -4.5283 -0.2767 -1.5672
 2833SOL     OW15497   1.327   4.740   7.238  1.0319 -0.4088  0.0999
 2833SOL    HW115498   1.315   4.680   7.160  1.5493 -1.7547  1.0382
 2833SOL    HW215499   1.364   4.828   7.207 -1.7416  0.2469 -1.5442
 2834SOL     OW15500   5.738   4.004   2.370 -0.7819  0.0112  0.1868
 2834SOL    HW115501   5.720   4.026   2.274  0.7995 -0.5276 -0.2557
 2834SOL    HW215502   5.834   3.977   2.380 -1.8106 -3.4158  1.2909
 2835SOL     OW15503   3.225   2.192   2.012  0.0817  0.0406 -0.0861
 2835SOL    HW115504   3.202   2.286   1.985 -1.8361 -0.8440 -1.7080
 2835SOL    HW215505   3.146   2.151   2.058  0.5316 -1.1356 -0.3610
 2836SOL     OW15506   6.532   1.406   5.665  0.5507 -0.6216 -0.3753
 2836SOL    HW115507   6.481   1.458   5.596  1.0174  0.3374  0.0058
 2836SOL    HW215508   6.602   1.351   5.619  2.3346  1.6902 -0.5092
 2837SOL     OW15509   4.697   4.945   3.150  0.5840  0.1501 -0.1304
 2837SOL    HW115510   4.651   4.985   3.071 -0.2176 -0.0152  0.2459
 2837SOL    HW215511   4.635   4.882   3.197 -0.3530  3.2135  2.9316
 2838SOL     OW15512   4.302   4.367   2.260 -0.1383  0.2584 -0.2405
 2838SOL    HW115513   4.236   4.391   2.331  0.7659  1.8145  0.0988
 2838SOL    HW215514   4.307   4.267   2.252 -1.7615  0.0945  0.4327
 2839SOL     OW15515   4.903   6.357   0.209 -0.0129  0.3374 -0.5709
 2839SOL    HW115516   4.940   6.381   0.299  0.2449  2.3816 -1.2047
 2839SOL    HW215517   4.852   6.435   0.173 -3.3204 -1.7289 -0.5662
 2840SOL     OW15518   2.437   4.171   3.911  0.0808 -0.2782 -0.2610
 2840SOL    HW115519   2.517   4.196   3.856 -1.0306  1.9440 -0.9072
 2840SOL    HW215520   2.455   4.085   3.957  3.3715  0.7964  0.6065
 2841SOL     OW15521   3.440   2.907   2.576  0.1962  0.0781  0.6770
 2841SOL    HW115522   3.497   2.847   2.521  0.3938  1.2888 -0.4449
 2841SOL    HW215523   3.350   2.865   2.589 -0.6567  0.8019 -2.5299
 2842SOL     OW15524   2.622   4.555   4.877  0.3913 -0.1993 -0.9909
 2842SOL    HW115525   2.646   4.635   4.931  1.3469 -0.1103 -1.5427
 2842SOL    HW215526   2.570   4.491   4.934  0.9686  0.1143 -0.0953
 2843SOL     OW15527   6.365   3.127   0.423  0.0771  0.0386  0.0155
 2843SOL    HW115528   6.426   3.159   0.496 -0.1637  1.3053 -0.3343
 2843SOL    HW215529   6.339   3.032   0.441  1.2830 -0.1657  0.7429
 2844SOL     OW15530   2.977   2.904   4.492 -0.1586 -0.1217 -0.1829
 2844SOL    HW115531   3.050   2.971   4.502 -0.9924  0.8307 -0.3819
 2844SOL    HW215532   3.016   2.812   4.488  1.0383  0.4001 -0.5739
 2845SOL     OW15533   4.279   3.788   2.877  0.0372 -0.0980  0.1028
 2845SOL    HW115534   4.281   3.718   2.947 -1.3818 -0.5358 -0.2921
 2845SOL    HW215535   4.283   3.746   2.787  1.2455  0.4326 -0.1055
 2846SOL     OW15536   2.188   6.609   1.375 -0.2136 -0.0545 -0.2888
 2846SOL    HW115537   2.103   6.597   1.427 -0.3290  0.5410 -0.3343
 2846SOL    HW215538   2.212   6.706   1.375  1.2725 -0.4039  1.0065
 2847SOL     OW15539   2.097   5.732   4.234  0.1717  0.0756  0.3741
 2847SOL    HW115540   2.174   5.709   4.294  0.3460  1.8592  0.8491
 2847SOL    HW215541   2.120   5.810   4.177 -0.3156 -1.0771 -1.4468
 2848SOL     OW15542   3.689   7.303   3.004  0.0701  0.6920 -0.3084
 2848SOL    HW115543   3.715   7.208   3.017 -3.3606 -0.3508 -0.5631
 2848SOL    HW215544   3.694   7.351   3.092  2.1706  0.4113 -0.2540
 2849SOL     OW15545   3.768   4.229   4.723  0.1026 -0.1207  0.2723
 2849SOL    HW115546   3.743   4.277   4.807 -1.6197  0.5695 -0.6152
 2849SOL    HW215547   3.715   4.144   4.717  0.3030 -0.2190 -0.0840
 2850SOL     OW15548   3.832   6.476   0.878  0.2583 -0.2987 -0.1774
 2850SOL    HW115549   3.766   6.449   0.948  0.6803 -0.0720  0.3047
 2850SOL    HW215550   3.828   6.410   0.802  0.0566 -0.7400  0.2136
 2851SOL     OW15551   1.598   4.652   6.854 -0.2488 -0.4782 -0.8049
 2851SOL    HW115552   1.677   4.598   6.824  0.2343 -0.1232 -0.1761
 2851SOL    HW215553   1.622   4.705   6.935 -1.9239 -2.3988  1.0206
 2852SOL     OW15554   5.393   7.148   6.826  0.1316 -0.4207  0.0272
 2852SOL    HW115555   5.476   7.198   6.848 -0.9454  1.5185 -0.2167
 2852SOL    HW215556   5.415   7.073   6.763  1.2181  2.1888 -2.8531
 2853SOL     OW15557   6.059   2.615   1.516  0.4920 -0.2222  0.1951
 2853SOL    HW115558   6.077   2.552   1.440  1.4410 -0.1753  0.3715
 2853SOL    HW215559   6.062   2.566   1.602 -0.1229 -0.1870  0.2378
 2854SOL     OW15560   1.247   5.487   2.063  0.5014 -0.0936 -0.3319
 2854SOL    HW115561   1.326   5.531   2.020  1.5213 -0.7426  0.8446
 2854SOL    HW215562   1.278   5.432   2.141 -1.2248  0.3669  0.6958
 2855SOL     OW15563   2.544   4.403   6.422  0.1835 -0.5977  0.4710
 2855SOL    HW115564   2.574   4.345   6.346 -1.2602 -1.5883  0.6494
 2855SOL    HW215565   2.538   4.498   6.391 -0.3953 -0.9956 -0.6605
 2856SOL     OW15566   1.409   2.967   5.622  0.0844 -0.1285  0.1334
 2856SOL    HW115567   1.411   3.036   5.550  0.4428 -0.2700  0.0065
 2856SOL    HW215568   1.419   3.011   5.711 -0.5509  0.0659  0.1124
 2857SOL     OW15569   5.879   6.660   6.075  0.2745 -0.0051 -0.0660
 2857SOL    HW115570   5.957   6.695   6.126 -0.4847  0.4104  0.8246
 2857SOL    HW215571   5.796   6.709   6.103 -0.4682 -1.1329 -0.2525
 2858SOL     OW15572   4.716   1.773   2.891  0.1826  0.2354 -1.0556
 2858SOL    HW115573   4.631   1.801   2.846 -0.2061 -0.0716 -0.5219
 2858SOL    HW215574   4.774   1.854   2.905 -0.6113  0.6757 -0.1975
 2859SOL     OW15575   5.559   0.562   0.196  0.6616  0.3879  0.5053
 2859SOL    HW115576   5.543   0.465   0.178  1.9401  0.1540  0.5384
 2859SOL    HW215577   5.588   0.573   0.291 -0.5704  0.9450  0.8258
 2860SOL     OW15578   4.085   4.001   2.493 -0.5411 -0.6517 -0.1445
 2860SOL    HW115579   4.169   4.025   2.445 -0.5794 -0.3546 -0.0629
 2860SOL    HW215580   4.046   3.918   2.453 -0.0649 -0.9469 -0.0061
 2861SOL     OW15581   1.803   3.695   7.309 -0.0833 -0.2230  0.3719
 2861SOL    HW115582   1.892   3.661   7.277 -0.3866  1.0976 -1.9669
 2861SOL    HW215583   1.816   3.756   7.387  0.8493 -1.8182  1.4984
 2862SOL     OW15584   4.868   5.121   6.148 -0.0968  0.4135 -0.0873
 2862SOL    HW115585   4.804   5.047   6.127  1.1361 -0.4880 -0.7263
 2862SOL    HW215586   4.833   5.176   6.224 -0.3653 -1.6797  1.3308
 2863SOL     OW15587   5.626   2.819   3.570 -0.2586  0.6842  0.2326
 2863SOL    HW115588   5.671   2.742   3.613 -1.5855 -0.2280  0.0265
 2863SOL    HW215589   5.612   2.799   3.473 -0.1587  1.3901  0.0699
 2864SOL     OW15590   4.288   7.232   0.032  0.3062  0.5145  0.4326
 2864SOL    HW115591   4.375   7.192   0.005  0.6905  1.6553 -0.0564
 2864SOL    HW215592   4.218   7.161   0.036  0.8971 -0.1480 -0.7375
 2865SOL     OW15593   0.369   4.689   5.710 -0.1450 -0.2750  0.1001
 2865SOL    HW115594   0.325   4.600   5.699  0.5032 -0.6564  0.4929
 2865SOL    HW215595   0.304   4.755   5.748 -1.4540  0.1967 -2.8287
 2866SOL     OW15596   2.543   6.167   1.045 -0.1268 -0.2971 -0.0825
 2866SOL    HW115597   2.544   6.226   1.126 -2.7488 -1.9111  1.1559
 2866SOL    HW215598   2.629   6.115   1.041 -0.2190 -0.6483  1.9894
 2867SOL     OW15599   2.743   2.147   1.123 -0.0106  0.2345  0.6141
 2867SOL    HW115600   2.680   2.107   1.056 -0.6516  0.5247  1.0293
 2867SOL    HW215601   2.769   2.239   1.094  1.7099 -0.5860 -0.4969
 2868SOL     OW15602   5.374   3.262   2.820 -0.2620  0.2353  0.4798
 2868SOL    HW115603   5.331   3.285   2.732  0.8951 -0.8181 -0.3805
 2868SOL    HW215604   5.302   3.250   2.889 -1.0768  2.9061  0.1582
 2869SOL     OW15605   7.289   5.187   6.204 -0.0083 -0.5300  0.1618
 2869SOL    HW115606   7.305   5.119   6.275 -0.0218  0.4355  1.1013
 2869SOL    HW215607   7.373   5.238   6.187  0.3646 -1.6714 -1.4990
 2870SOL     OW15608   6.546   6.035   3.878  0.4596  0.3784  0.1295
 2870SOL    HW115609   6.521   5.962   3.941  1.3032 -0.3553 -0.3689
 2870SOL    HW215610   6.593   5.996   3.799  1.8583  1.5407  0.3497
 2871SOL     OW15611   0.308   4.470   6.839 -0.2300 -0.4011  0.4358
 2871SOL    HW115612   0.313   4.435   6.746  1.2778 -0.1276  0.3971
 2871SOL    HW215613   0.212   4.480   6.866 -0.6865  0.4900 -1.4391
 2872SOL     OW15614   4.979   4.866   6.005  0.2121 -0.0937  0.1512
 2872SOL    HW115615   5.014   4.825   6.090  0.8184 -0.8248 -0.4434
 2872SOL    HW215616   4.907   4.931   6.027 -0.2002 -0.8884  1.1749
 2873SOL     OW15617   3.404   0.639   4.233  0.3151  0.3817 -0.1602
 2873SOL    HW115618   3.450   0.562   4.277 -0.2515  0.4076  0.4818
 2873SOL    HW215619   3.340   0.681   4.297  2.8272  3.2980  0.5357
 2874SOL     OW15620   5.904   0.074   4.904 -0.1186  0.2858  0.0138
 2874SOL    HW115621   5.928   0.000   4.842  0.2438  0.6346 -0.2565
 2874SOL    HW215622   5.886   0.157   4.852 -0.8042  0.3224  0.2954
 2875SOL     OW15623   7.344   5.429   2.911  0.0285  0.0462 -0.0671
 2875SOL    HW115624   7.431   5.456   2.952  0.1413 -1.2639  0.5578
 2875SOL    HW215625   7.354   5.428   2.811  0.6718  0.0707 -0.0070
 2876SOL     OW15626   3.762   3.695   0.603 -0.1758  0.3387  0.0069
 2876SOL    HW115627   3.784   3.786   0.639 -0.7462  0.7775 -0.7328
 2876SOL    HW215628   3.829   3.669   0.534  0.8280 -0.4362  1.2515
 2877SOL     OW15629   4.728   7.095   6.971 -0.2319  0.1287  0.3187
 2877SOL    HW115630   4.691   7.188   6.980  0.4599  0.3779  0.5658
 2877SOL    HW215631   4.673   7.044   6.905 -0.4069  0.8217 -0.0746
 2878SOL     OW15632   4.901   3.365   1.468 -0.1731  0.2349  0.7538
 2878SOL    HW115633   4.974   3.410   1.417 -0.9690  1.0636  0.3310
 2878SOL    HW215634   4.817   3.419   1.462 -0.1791  0.5842  3.3262
 2879SOL     OW15635   4.119   2.575   2.675 -0.3383 -0.3813  0.4850
 2879SOL    HW115636   4.178   2.520   2.733 -0.3949 -0.7114  0.2317
 2879SOL    HW215637   4.054   2.515   2.627 -0.2165 -0.1239 -0.0061
 2880SOL     OW15638   0.630   4.036   4.586 -0.3447 -0.8720  0.6602
 2880SOL    HW115639   0.704   4.041   4.654  0.2611  0.5770 -0.0806
 2880SOL    HW215640   0.669   4.016   4.496 -0.9180 -0.7053  0.3721
 2881SOL     OW15641   3.190   2.372   3.208  0.2584  0.1459 -0.0019
 2881SOL    HW115642   3.129   2.393   3.132  0.1087 -0.4432 -0.0462
 2881SOL    HW215643   3.243   2.290   3.187  1.5119  1.0031 -0.2183
 2882SOL     OW15644   1.613   4.791   1.158 -0.2619 -0.5963  0.1650
 2882SOL    HW115645   1.520   4.816   1.185  0.1587  1.1260  0.0825
 2882SOL    HW215646   1.669   4.874   1.150  0.8005 -1.4466 -1.6113
 2883SOL     OW15647   5.943   0.305   4.712  0.3821 -0.2364 -0.1705
 2883SOL    HW115648   5.973   0.264   4.626  0.9326 -1.1042  0.4261
 2883SOL    HW215649   6.022   0.332   4.766  0.1114 -2.6108  1.4519
 2884SOL     OW15650   2.254   4.775   5.970  0.3271  0.4337 -0.5761
 2884SOL    HW115651   2.170   4.757   5.919  0.9179  1.6730 -2.0309
 2884SOL    HW215652   2.248   4.733   6.061 -1.9490  0.6930 -0.5791
 2885SOL     OW15653   4.567   1.111   2.093 -0.2765 -0.0816 -0.4561
 2885SOL    HW115654   4.515   1.104   2.008  0.2623 -1.4744 -0.6837
 2885SOL    HW215655   4.602   1.021   2.119 -1.3767  0.1175  1.8415
 2886SOL     OW15656   7.052   3.179   3.071  0.1815  0.3482 -0.1848
 2886SOL    HW115657   6.987   3.254   3.063  1.2654  1.3373  0.0258
 2886SOL    HW215658   7.019   3.113   3.137 -0.5675  0.8881 -0.0165
 2887SOL     OW15659   3.505   5.407   0.225 -0.0009 -0.0338 -0.4445
 2887SOL    HW115660   3.486   5.453   0.139 -0.8002  0.5007  0.0127
 2887SOL    HW215661   3.520   5.309   0.208 -0.9077 -0.0672 -1.1049
 2888SOL     OW15662   1.737   5.176   3.163 -0.2882 -0.2356 -0.1048
 2888SOL    HW115663   1.812   5.143   3.220 -0.3887  0.1934  0.2869
 2888SOL    HW215664   1.668   5.219   3.222 -0.5734 -0.1330 -0.5166
 2889SOL     OW15665   7.170   5.741   4.538 -0.0343 -0.3397 -0.1672
 2889SOL    HW115666   7.075   5.708   4.537 -0.9746  2.2582 -1.1215
 2889SOL    HW215667   7.217   5.703   4.617 -1.9033 -1.6129  0.3765
 2890SOL     OW15668   0.763   1.468   3.698 -0.0978 -0.1924 -0.6485
 2890SOL    HW115669   0.680   1.497   3.746  0.3452  1.0928 -0.6301
 2890SOL    HW215670   0.738   1.424   3.612 -0.7603  1.6435 -1.4094
 2891SOL     OW15671   0.369   4.157   1.093 -0.0894  0.5861  0.1773
 2891SOL    HW115672   0.385   4.254   1.113 -0.6684  1.0079 -1.3144
 2891SOL    HW215673   0.376   4.142   0.994 -2.7874 -0.3670  0.1041
 2892SOL     OW15674   3.316   4.176   3.553  0.2605  0.0963  0.1277
 2892SOL    HW115675   3.289   4.141   3.642  0.7151  1.1137  0.6722
 2892SOL    HW215676   3.250   4.246   3.524  1.0928  1.0322  0.4736
 2893SOL     OW15677   1.503   6.966   1.112  0.9181  0.1865 -0.0104
 2893SOL    HW115678   1.558   6.975   1.029  1.7991  0.7539  0.6298
 2893SOL    HW215679   1.545   6.898   1.173 -0.6263 -1.4721 -0.7324
 2894SOL     OW15680   5.061   3.416   2.417 -0.4616  0.0378  0.3623
 2894SOL    HW115681   5.065   3.361   2.334  0.6531  0.9312 -0.1919
 2894SOL    HW215682   4.974   3.464   2.422 -1.5590 -1.9609  0.9859
 2895SOL     OW15683   6.610   2.944   1.510 -0.4133 -0.3474 -0.1262
 2895SOL    HW115684   6.520   2.936   1.467 -1.3494  0.3367  1.6769
 2895SOL    HW215685   6.654   2.854   1.513  0.1720 -0.2452 -3.5162
 2896SOL     OW15686   3.318   4.828   6.668 -0.4145 -0.0098 -0.2549
 2896SOL    HW115687   3.360   4.781   6.590  1.2006  0.2583  0.4221
 2896SOL    HW215688   3.340   4.779   6.752  0.1141  1.1714  0.3115
 2897SOL     OW15689   3.107   3.015   2.327  0.1674  0.2103 -0.2757
 2897SOL    HW115690   3.150   2.955   2.395  1.2617  0.6402 -0.5690
 2897SOL    HW215691   3.051   3.084   2.374  1.9217  1.2972  0.2928
 2898SOL     OW15692   7.032   5.256   4.125  0.1294 -0.8630  0.1882
 2898SOL    HW115693   7.124   5.294   4.138 -0.5343  0.8596  0.0327
 2898SOL    HW215694   7.039   5.160   4.097  1.9190 -0.2699 -1.5225
 2899SOL     OW15695   5.374   6.129   6.976  0.1839 -0.1993  0.4040
 2899SOL    HW115696   5.394   6.054   7.040  1.1292  0.2672  0.6592
 2899SOL    HW215697   5.328   6.203   7.024  1.2064  0.2963  0.6142
 2900SOL     OW15698   2.320   6.054   0.144  0.3432 -0.2205  0.2554
 2900SOL    HW115699   2.375   6.137   0.145 -1.0506  0.7237 -0.5065
 2900SOL    HW215700   2.380   5.974   0.138  1.5942  0.8200 -1.1921
 2901SOL     OW15701   0.101   2.513   6.801  0.3356 -0.0959  0.3248
 2901SOL    HW115702   0.089   2.418   6.829 -1.0657  0.1413  0.5668
 2901SOL    HW215703   0.194   2.543   6.821  1.7117 -2.3233 -2.4307
 2902SOL     OW15704   1.110   4.337   5.413 -0.0518 -0.4315 -0.5824
 2902SOL    HW115705   1.113   4.420   5.358 -1.1619  0.4785  0.7070
 2902SOL    HW215706   1.015   4.309   5.426  0.1003  0.0378  1.8337
 2903SOL     OW15707   4.245   3.677   4.425 -0.3028  0.5347  0.6439
 2903SOL    HW115708   4.268   3.618   4.347 -0.8399  1.1508  0.0060
 2903SOL    HW215709   4.188   3.627   4.489 -0.3069  0.1944  0.3749
 2904SOL     OW15710   2.899   7.238   0.283 -0.3862 -0.2047  0.4183
 2904SOL    HW115711   2.906   7.138   0.279 -1.8879 -0.3643  1.6953
 2904SOL    HW215712   2.939   7.271   0.368 -0.5395  0.2309  0.3244
 2905SOL     OW15713   3.079   2.422   2.795 -0.1722 -0.4228  0.0062
 2905SOL    HW115714   3.105   2.346   2.736  1.1573 -0.3244  0.4377
 2905SOL    HW215715   3.027   2.387   2.873 -1.6995 -0.5833 -1.0621
 2906SOL     OW15716   5.545   1.094   3.482  0.1100 -0.3576 -0.0510
 2906SOL    HW115717   5.577   1.045   3.402  0.3054 -0.8569  0.3320
 2906SOL    HW215718   5.453   1.063   3.506  0.1646 -0.4104  0.0890
 2907SOL     OW15719   5.032   2.360   5.158 -0.1356  0.2749  0.1549
 2907SOL    HW115720   4.986   2.299   5.094  0.4284 -0.6638  0.6317
 2907SOL    HW215721   5.003   2.339   5.251 -0.1147  0.9025  0.3111
 2908SOL     OW15722   4.301   7.020   7.145  0.2491  0.4744  0.0756
 2908SOL    HW115723   4.272   7.071   7.064 -0.8594  0.9777  0.7631
 2908SOL    HW215724   4.384   7.060   7.182  1.5390 -0.6038 -1.5815
 2909SOL     OW15725   0.786   4.097   5.897  0.2395 -0.5843  0.5112
 2909SOL    HW115726   0.862   4.062   5.842 -0.2349 -0.7273 -0.0574
 2909SOL    HW215727   0.704   4.042   5.879 -0.4307  0.6083 -0.1615
 2910SOL     OW15728   6.529   6.108   6.662  0.1692  0.5723 -0.2571
 2910SOL    HW115729   6.458   6.159   6.612  0.0618  0.0204 -0.6702
 2910SOL    HW215730   6.525   6.012   6.636  0.3416  0.3446  0.5713
 2911SOL     OW15731   1.732   2.351   4.224 -0.1893 -0.1362  0.1387
 2911SOL    HW115732   1.649   2.300   4.201 -0.9594  1.8506 -1.7066
 2911SOL    HW215733   1.784   2.301   4.292 -1.8933 -2.4092 -0.1681
 2912SOL     OW15734   6.167   3.237   0.986 -0.3184 -0.2906  0.1490
 2912SOL    HW115735   6.161   3.336   1.004  0.4775 -0.6361  2.4356
 2912SOL    HW215736   6.081   3.193   1.014 -0.1313 -0.4393  0.4943
 2913SOL     OW15737   6.632   6.988   1.169  0.2468 -0.3741 -0.3308
 2913SOL    HW115738   6.633   6.904   1.115  0.3063 -0.6552  0.0978
 2913SOL    HW215739   6.587   6.969   1.257  3.0969 -0.8006  1.1004
 2914SOL     OW15740   4.235   6.585   3.923 -0.0675  0.1329 -0.6240
 2914SOL    HW115741   4.180   6.515   3.876  0.2223 -0.2259 -0.4274
 2914SOL    HW215742   4.244   6.665   3.863  1.0601 -0.6738 -1.5449
 2915SOL     OW15743   3.221   6.991   6.479 -0.3174  0.0778 -0.1818
 2915SOL    HW115744   3.157   6.938   6.536 -0.7046 -1.0200 -1.6130
 2915SOL    HW215745   3.314   6.954   6.491 -0.0048  1.3563  1.5163
 2916SOL     OW15746   4.710   2.946   4.964 -0.2195  0.7781  0.0983
 2916SOL    HW115747   4.725   3.005   4.884 -0.8756  1.3691  0.4061
 2916SOL    HW215748   4.649   2.871   4.940  0.9355 -0.0175 -0.4033
 2917SOL     OW15749   2.285   6.609   0.309 -0.3522 -0.7330 -0.1128
 2917SOL    HW115750   2.252   6.702   0.321  0.2799 -0.5706  0.3542
 2917SOL    HW215751   2.208   6.545   0.316 -0.5790 -0.3504  0.9552
 2918SOL     OW15752   5.509   4.001   3.562 -0.3109 -0.4248  0.1191
 2918SOL    HW115753   5.543   4.068   3.497  1.4286 -0.0642  1.3790
 2918SOL    HW215754   5.585   3.963   3.615 -1.2139 -3.6119 -0.7371
 2919SOL     OW15755   6.186   5.713   4.289 -0.7350 -1.2782  0.2637
 2919SOL    HW115756   6.153   5.622   4.265  1.6254 -2.2657  0.6336
 2919SOL    HW215757   6.235   5.753   4.211 -0.4258 -0.9747  0.6100
 2920SOL     OW15758   4.005   3.370   4.847 -0.1619  0.1145  0.1305
 2920SOL    HW115759   4.072   3.430   4.802 -0.2749 -1.2983 -1.9972
 2920SOL    HW215760   4.044   3.279   4.859 -1.3373 -0.4428 -0.2044
 2921SOL     OW15761   3.604   4.543   5.055  0.6767  0.4490  0.1689
 2921SOL    HW115762   3.542   4.620   5.066  1.0801  0.7645  0.2149
 2921SOL    HW215763   3.565   4.479   4.988 -1.3764 -1.0629  2.6826
 2922SOL     OW15764   5.954   4.843   3.146 -0.5581  0.4353 -0.2541
 2922SOL    HW115765   5.864   4.821   3.183 -1.2185  1.9795 -0.8677
 2922SOL    HW215766   6.010   4.760   3.141 -1.1274 -0.1273  2.3182
 2923SOL     OW15767   4.539   4.144   4.210 -0.2971 -0.0494 -0.2228
 2923SOL    HW115768   4.532   4.064   4.271  1.3221  0.1184  0.2311
 2923SOL    HW215769   4.553   4.226   4.266  3.3572 -0.1642 -0.8104
 2924SOL     OW15770   6.672   2.248   3.067  0.3838  0.1177 -0.1933
 2924SOL    HW115771   6.739   2.245   2.993 -0.5966  2.4048 -1.1960
 2924SOL    HW215772   6.580   2.252   3.029 -0.2098 -0.2777  1.1662
 2925SOL     OW15773   4.765   5.359   5.991 -0.3494  0.3096 -0.0414
 2925SOL    HW115774   4.807   5.374   5.901  0.7255 -0.2185  0.3685
 2925SOL    HW215775   4.773   5.262   6.015 -0.5485  0.4704  0.6712
 2926SOL     OW15776   2.819   1.068   0.956 -0.3834 -0.1832  0.6020
 2926SOL    HW115777   2.734   1.114   0.981  0.6783  0.7885  2.6084
 2926SOL    HW215778   2.814   0.972   0.981 -0.4637  0.1336  1.8282
 2927SOL     OW15779   2.370   4.033   6.524  0.1477 -1.3218 -0.1179
 2927SOL    HW115780   2.422   4.044   6.440 -0.6001 -0.7254 -0.5102
 2927SOL    HW215781   2.429   4.052   6.602  0.5415 -0.7052 -0.5590
 2928SOL     OW15782   5.802   6.882   6.746  0.1626  0.3099  0.4279
 2928SOL    HW115783   5.809   6.784   6.763  0.4532  0.4178  0.9393
 2928SOL    HW215784   5.861   6.931   6.810  0.1587  0.8065  0.0520
 2929SOL     OW15785   2.714   2.953   7.103  0.2844 -0.4949  0.4378
 2929SOL    HW115786   2.727   3.022   7.174 -0.3585 -1.1711  1.2250
 2929SOL    HW215787   2.802   2.911   7.081  0.4411 -0.5053  1.0641
 2930SOL     OW15788   5.028   3.299   6.775 -0.1119  0.0649  0.7089
 2930SOL    HW115789   5.107   3.347   6.736 -0.2411 -0.9229 -0.8231
 2930SOL    HW215790   4.998   3.346   6.857 -0.1828  2.5968 -0.7038
 2931SOL     OW15791   1.923   1.015   5.410 -0.3078  0.0592 -0.0619
 2931SOL    HW115792   1.838   0.980   5.449  1.3577 -3.0324  0.9903
 2931SOL    HW215793   1.975   1.063   5.480 -0.5005  0.6261 -0.3069
 2932SOL     OW15794   0.471   6.734   1.312  0.1683 -0.8302  0.0203
 2932SOL    HW115795   0.426   6.655   1.353 -2.4638  1.1101  1.0454
 2932SOL    HW215796   0.532   6.777   1.379 -1.0824  0.0128  0.6396
 2933SOL     OW15797   1.448   4.148   2.414  0.2019 -0.4936 -0.2798
 2933SOL    HW115798   1.409   4.057   2.398 -0.0342 -0.4844  0.2384
 2933SOL    HW215799   1.436   4.204   2.332 -1.4245 -0.3007  0.0810
 2934SOL     OW15800   3.537   0.273   7.064  0.2316 -0.4441 -0.2695
 2934SOL    HW115801   3.490   0.190   7.036 -2.2989  0.6728  0.5606
 2934SOL    HW215802   3.525   0.288   7.162  0.5580  0.9594 -0.4240
 2935SOL     OW15803   0.058   5.527   6.333  0.3084 -0.2546  0.0272
 2935SOL    HW115804   0.028   5.623   6.331  1.0107  0.0009  0.9864
 2935SOL    HW215805   0.012   5.476   6.260  1.2720  1.2121 -1.6654
 2936SOL     OW15806   3.764   3.382   3.067 -0.0190  0.1843  0.1869
 2936SOL    HW115807   3.799   3.288   3.070 -1.2249 -0.2821  0.2762
 2936SOL    HW215808   3.695   3.393   3.140 -0.5095  0.8750 -0.3790
 2937SOL     OW15809   4.973   6.418   2.281  0.5478  0.0704 -0.5215
 2937SOL    HW115810   4.938   6.381   2.195  0.8401  1.5849 -1.3005
 2937SOL    HW215811   4.946   6.514   2.290  2.1398  0.4682  0.1833
 2938SOL     OW15812   6.893   1.874   7.333 -0.4889 -0.1436  0.0157
 2938SOL    HW115813   6.866   1.969   7.348 -0.7796  0.0386 -1.6454
 2938SOL    HW215814   6.821   1.812   7.364  0.1446  0.1186  2.1156
 2939SOL     OW15815   5.588   1.832   3.080  0.2918  0.0795  0.5052
 2939SOL    HW115816   5.509   1.840   3.142 -0.4105 -3.9564  0.2801
 2939SOL    HW215817   5.650   1.762   3.115  1.4034 -0.0989 -1.7850
 2940SOL     OW15818   4.836   0.769   4.244 -0.6960  0.1364 -0.5023
 2940SOL    HW115819   4.887   0.845   4.284  0.6523 -0.3121 -1.3300
 2940SOL    HW215820   4.743   0.799   4.222 -0.9005  0.8830  1.2923
 2941SOL     OW15821   5.464   1.588   3.415 -0.3254 -0.1793  0.1302
 2941SOL    HW115822   5.534   1.527   3.379 -1.1454 -0.2201 -1.4307
 2941SOL    HW215823   5.381   1.537   3.435 -0.6455  0.2348 -0.1241
 2942SOL     OW15824   6.036   5.329   3.321  0.3266 -0.6550 -0.1054
 2942SOL    HW115825   5.976   5.368   3.251 -0.6998 -1.5947  0.2328
 2942SOL    HW215826   6.041   5.230   3.308 -0.4738 -0.9403  1.6008
 2943SOL     OW15827   7.000   4.970   4.772  0.6384  0.0597 -0.1069
 2943SOL    HW115828   7.002   5.068   4.788 -3.1474  0.3494 -0.9643
 2943SOL    HW215829   6.984   4.952   4.674  0.2028 -1.4022  0.2139
 2944SOL     OW15830   4.631   1.923   0.023  0.1081 -0.4152 -0.1600
 2944SOL    HW115831   4.555   1.987   0.005 -0.0380 -0.7001 -0.5713
 2944SOL    HW215832   4.712   1.975   0.049 -0.2514 -0.1095  0.3728
 2945SOL     OW15833   4.805   1.227   0.021 -0.2383 -0.7955 -0.5426
 2945SOL    HW115834   4.777   1.322   0.013 -2.0874 -1.1412  1.4590
 2945SOL    HW215835   4.870   1.205  -0.052  0.0879  1.9283 -1.1208
 2946SOL     OW15836   1.038   5.020   7.243 -0.3692 -0.2035 -0.7523
 2946SOL    HW115837   1.051   4.971   7.329  0.3822  0.2278 -0.6166
 2946SOL    HW215838   0.969   5.092   7.256  0.1110  0.1924 -0.3749
 2947SOL     OW15839   3.938   7.230   5.174  0.1989  0.0181  0.6656
 2947SOL    HW115840   4.000   7.304   5.201  0.8496  0.6017 -2.3386
 2947SOL    HW215841   3.990   7.145   5.164  0.1157  0.0005  0.3886
 2948SOL     OW15842   2.258   3.731   0.978 -0.0263  0.4383 -0.0009
 2948SOL    HW115843   2.170   3.684   0.987 -0.5983  1.0659 -2.1509
 2948SOL    HW215844   2.323   3.672   0.931 -0.0645  0.9133 -0.6606
 2949SOL     OW15845   5.467   7.044   3.430 -0.2142  0.2764  0.6661
 2949SOL    HW115846   5.558   7.037   3.390  0.0058 -0.7816  1.3121
 2949SOL    HW215847   5.473   7.080   3.523 -0.5685  1.2464  0.3207
 2950SOL     OW15848   6.723   6.753   1.953 -0.5683  0.2740 -0.1617
 2950SOL    HW115849   6.710   6.674   2.012 -0.1838  0.0472 -0.3819
 2950SOL    HW215850   6.689   6.731   1.861 -1.1929  0.6351 -0.0177
 2951SOL     OW15851   4.282   6.451   6.594 -0.6919 -0.3060  0.6555
 2951SOL    HW115852   4.190   6.490   6.595 -0.2024  0.8514  0.9199
 2951SOL    HW215853   4.295   6.399   6.509 -1.1679  0.5522  0.0554
 2952SOL     OW15854   3.585   5.834   1.240 -0.2424 -0.2250  0.2311
 2952SOL    HW115855   3.489   5.843   1.212  0.4965 -1.4446 -2.9605
 2952SOL    HW215856   3.600   5.743   1.278 -0.0282 -0.6043 -0.7470
 2953SOL     OW15857   3.441   2.294   6.480 -0.1002  0.0842  0.4348
 2953SOL    HW115858   3.404   2.275   6.389  2.4032  0.2150 -0.6565
 2953SOL    HW215859   3.448   2.209   6.532 -1.6985  0.0313  0.5927
 2954SOL     OW15860   3.542   2.859   0.536  0.1723 -0.5271  0.9425
 2954SOL    HW115861   3.628   2.894   0.499  1.1997 -2.7947  1.1172
 2954SOL    HW215862   3.488   2.935   0.572  0.1115  1.4896 -3.1425
 2955SOL     OW15863   4.971   4.161   4.101  0.6736 -0.1187  0.3066
 2955SOL    HW115864   4.939   4.252   4.128  1.7077 -0.3630  2.5111
 2955SOL    HW215865   4.896   4.095   4.111  0.5707  0.0942  0.9689
 2956SOL     OW15866   5.889   2.502   2.788  0.2421 -0.0893 -0.3992
 2956SOL    HW115867   5.892   2.474   2.884  2.1586  0.3912 -0.2888
 2956SOL    HW215868   5.868   2.424   2.730 -0.2514 -0.5210  0.3646
 2957SOL     OW15869   1.578   0.055   6.399  0.0081  0.5112 -0.3998
 2957SOL    HW115870   1.620   0.138   6.362  1.8905 -0.4479 -0.4393
 2957SOL    HW215871   1.481   0.054   6.375 -0.1041  2.8526 -0.1281
 2958SOL     OW15872   3.348   0.571   7.251 -0.5841  0.3364  0.5361
 2958SOL    HW115873   3.400   0.486   7.258 -1.2520 -0.1453 -0.2193
 2958SOL    HW215874   3.294   0.584   7.334  0.2167  0.4837  1.0294
 2959SOL     OW15875   5.183   0.726   5.912  0.3512  0.6225 -0.1875
 2959SOL    HW115876   5.281   0.715   5.930  0.7625 -0.1211 -2.6632
 2959SOL    HW215877   5.143   0.787   5.980  2.1570 -0.4954  1.9361
 2960SOL     OW15878   1.115   3.607   3.204  0.4781 -0.2376 -0.7857
 2960SOL    HW115879   1.122   3.601   3.104  0.6508  0.1117 -0.7965
 2960SOL    HW215880   1.113   3.515   3.243  0.3339 -0.3762 -1.1164
 2961SOL     OW15881   3.184   0.123   4.345 -0.8713 -0.2382 -0.1058
 2961SOL    HW115882   3.128   0.042   4.364 -0.9492 -0.3673 -0.8861
 2961SOL    HW215883   3.247   0.138   4.422 -0.5852 -1.2709 -0.1176
 2962SOL     OW15884   3.394   1.622   5.803  0.2047 -0.1252  0.1870
 2962SOL    HW115885   3.403   1.655   5.709  0.8727 -1.3564 -0.1982
 2962SOL    HW215886   3.373   1.698   5.863  0.2677  0.7581 -0.8893
 2963SOL     OW15887   1.389   0.048   1.064 -0.4775 -0.3280 -0.3820
 2963SOL    HW115888   1.330   0.081   1.138  0.0308 -0.1859 -0.0388
 2963SOL    HW215889   1.460   0.116   1.045  0.4953 -1.1543  0.2388
 2964SOL     OW15890   4.146   0.075   3.691 -0.1438 -0.2671  0.1990
 2964SOL    HW115891   4.098   0.020   3.759  0.8888  0.0691  1.2031
 2964SOL    HW215892   4.222   0.023   3.653 -0.0482 -0.0565  0.1012
 2965SOL     OW15893   4.657   1.278   4.840 -0.3302 -0.9375 -0.6490
 2965SOL    HW115894   4.658   1.348   4.769 -0.7761 -0.0795  0.1719
 2965SOL    HW215895   4.564   1.268   4.876  0.1380 -0.3569  0.7706
 2966SOL     OW15896   1.876   3.171   2.042  0.2329 -0.2974  0.0336
 2966SOL    HW115897   1.943   3.237   2.008  0.3909 -0.6845 -0.4143
 2966SOL    HW215898   1.808   3.154   1.970  0.4696 -0.9886 -0.0278
 2967SOL     OW15899   0.379   0.460   1.515  0.0126 -0.9531  0.2374
 2967SOL    HW115900   0.363   0.491   1.609  2.5796 -1.6745  0.9500
 2967SOL    HW215901   0.317   0.509   1.453 -3.8857 -2.6841  2.6024
 2968SOL     OW15902   5.073   1.657   4.247 -0.0284 -0.6376  0.2257
 2968SOL    HW115903   5.106   1.671   4.341 -0.1675 -0.5077  0.2568
 2968SOL    HW215904   5.109   1.729   4.188  1.5625 -1.7764 -0.2056
 2969SOL     OW15905   3.204   5.082   6.378  0.0226  0.4691  0.6288
 2969SOL    HW115906   3.194   4.991   6.337  3.3112  0.2035  0.2713
 2969SOL    HW215907   3.217   5.073   6.477 -1.8526  0.7126  0.9073
 2970SOL     OW15908   1.500   3.515   3.888 -0.5958 -0.7285  0.5872
 2970SOL    HW115909   1.409   3.549   3.912 -0.4543  0.9666 -1.1209
 2970SOL    HW215910   1.494   3.463   3.802 -0.0630 -1.1875  0.8287
 2971SOL     OW15911   4.707   3.881   1.123 -0.5180 -0.3968 -0.7229
 2971SOL    HW115912   4.731   3.978   1.134  0.4247 -0.7697  0.6515
 2971SOL    HW215913   4.761   3.842   1.048  1.0031 -0.4710  0.3792
 2972SOL     OW15914   3.190   6.834   5.160 -0.1432  0.5985  0.1093
 2972SOL    HW115915   3.285   6.814   5.185  0.5713  0.2739 -2.6889
 2972SOL    HW215916   3.134   6.753   5.177  0.3747  0.2885  0.3695
 2973SOL     OW15917   0.576   2.494   0.941  0.6006  0.2429  0.0943
 2973SOL    HW115918   0.489   2.455   0.973  0.8123  0.3716  0.8270
 2973SOL    HW215919   0.632   2.421   0.902 -0.5044  0.4216 -1.9195
 2974SOL     OW15920   4.696   4.953   5.990  0.1270 -0.4023 -0.5469
 2974SOL    HW115921   4.713   4.864   5.947  1.1781 -0.3640 -0.2328
 2974SOL    HW215922   4.717   5.026   5.925 -0.1383 -0.3757 -0.6019
 2975SOL     OW15923   1.321   5.694   6.989  0.3390  0.1974  0.1093
 2975SOL    HW115924   1.366   5.680   6.900  1.3418 -1.4127  0.8583
 2975SOL    HW215925   1.326   5.610   7.043 -3.1020  0.1379  0.4526
 2976SOL     OW15926   5.668   5.961   5.481 -0.2286  0.0075 -0.3800
 2976SOL    HW115927   5.590   5.904   5.506 -1.3823  2.2037  1.1864
 2976SOL    HW215928   5.670   5.973   5.382 -2.6672  1.0236 -0.3182
 2977SOL     OW15929   2.530   7.186   0.499  0.1723  0.0195  0.7937
 2977SOL    HW115930   2.501   7.182   0.404 -1.7189  0.9877  1.3010
 2977SOL    HW215931   2.582   7.270   0.515 -0.2233  0.2604  0.8094
 2978SOL     OW15932   5.926   5.213   4.327  0.0872 -0.0953  0.2556
 2978SOL    HW115933   5.993   5.204   4.400 -1.4366  0.0029  1.6855
 2978SOL    HW215934   5.974   5.219   4.239  1.9006 -0.9850  1.1498
 2979SOL     OW15935   5.278   2.793   0.302  0.1523  0.0126  0.5580
 2979SOL    HW115936   5.223   2.849   0.240 -0.1618  0.4417  1.2131
 2979SOL    HW215937   5.271   2.697   0.276 -0.0812  0.1761  0.0132
 2980SOL     OW15938   6.972   2.373   0.389  0.5972 -0.4307 -0.3432
 2980SOL    HW115939   7.007   2.282   0.369  1.2810 -0.0077 -1.1011
 2980SOL    HW215940   6.913   2.403   0.314  2.2981  0.7234 -1.2493
 2981SOL     OW15941   0.845   4.254   2.682  0.2477 -0.5318  0.1944
 2981SOL    HW115942   0.806   4.341   2.714  1.1041  0.3158 -1.0100
 2981SOL    HW215943   0.942   4.268   2.660  0.6161 -2.0229  0.8614
 2982SOL     OW15944   6.035   3.618   1.826 -1.0797 -0.4116  0.0395
 2982SOL    HW115945   6.106   3.586   1.764 -1.7328 -0.9565 -0.4305
 2982SOL    HW215946   5.945   3.590   1.792 -1.5915  1.0733  0.1357
 2983SOL     OW15947   0.675   4.229   6.924  0.1056  0.2513  0.3525
 2983SOL    HW115948   0.735   4.214   7.002  0.3913 -1.1632 -0.1275
 2983SOL    HW215949   0.665   4.144   6.873 -0.8249  0.9368 -0.6243
 2984SOL     OW15950   5.542   6.131   3.445 -0.1466  0.4202 -0.0181
 2984SOL    HW115951   5.466   6.121   3.381 -0.5213  0.8491  0.3608
 2984SOL    HW215952   5.571   6.226   3.450  1.7135 -0.0221 -1.6420
 2985SOL     OW15953   3.080   6.364   7.030  0.0245  0.0585  0.1031
 2985SOL    HW115954   3.135   6.340   7.110  2.1112 -0.7723 -1.5391
 2985SOL    HW215955   3.045   6.280   6.987 -1.4931  0.5231  0.3785
 2986SOL     OW15956   2.385   3.421   5.820  0.1328 -0.6816  0.8739
 2986SOL    HW115957   2.338   3.359   5.883 -2.0433 -0.8845 -0.8875
 2986SOL    HW215958   2.421   3.368   5.742 -0.5780  0.0746  0.0225
 2987SOL     OW15959   1.547   4.060   3.085 -0.0495  0.3839  0.5847
 2987SOL    HW115960   1.613   4.135   3.079  2.3214 -1.4212  2.8889
 2987SOL    HW215961   1.578   3.984   3.027 -0.9301  0.1107  0.4624
 2988SOL     OW15962   3.330   4.618   6.387  0.2752  0.4476  0.0946
 2988SOL    HW115963   3.333   4.519   6.373 -0.0879  0.3417  0.7686
 2988SOL    HW215964   3.420   4.649   6.417  1.2236  0.7583 -2.9314
 2989SOL     OW15965   0.803   1.386   2.291 -0.5134 -0.1004 -0.0459
 2989SOL    HW115966   0.867   1.429   2.228 -1.2917 -0.7058 -1.2823
 2989SOL    HW215967   0.850   1.364   2.377  0.6350  0.4893 -0.5149
 2990SOL     OW15968   3.489   3.063   1.480  0.0048  0.1245  0.9160
 2990SOL    HW115969   3.474   2.966   1.496 -0.6966  0.0196 -0.3027
 2990SOL    HW215970   3.403   3.106   1.451  0.3262  1.0893  1.3708
 2991SOL     OW15971   6.433   1.554   4.571 -0.2448 -0.0984 -0.6744
 2991SOL    HW115972   6.349   1.517   4.611 -0.0206 -0.7665 -0.8144
 2991SOL    HW215973   6.489   1.596   4.643 -0.6867  0.3264 -0.5776
 2992SOL     OW15974   0.383   0.329   0.369 -0.0823 -0.0247  0.1411
 2992SOL    HW115975   0.340   0.401   0.314  1.2390 -0.7011 -1.8254
 2992SOL    HW215976   0.387   0.245   0.316  1.3493 -0.6703  1.2375
 2993SOL     OW15977   3.231   6.941   6.819 -0.0218  0.3206 -0.2386
 2993SOL    HW115978   3.282   7.017   6.779 -1.5650  0.9956 -0.9510
 2993SOL    HW215979   3.232   6.864   6.756  1.3248 -0.1834  0.3737
 2994SOL     OW15980   6.862   4.514   4.082 -0.2079 -0.5804 -0.0183
 2994SOL    HW115981   6.941   4.559   4.040 -0.1645 -1.1123 -0.5119
 2994SOL    HW215982   6.778   4.549   4.040 -0.1984 -0.6223 -0.0711
 2995SOL     OW15983   0.161   5.805   5.119 -0.0090 -0.4627  0.1965
 2995SOL    HW115984   0.112   5.816   5.032 -0.6101  0.0383  0.5914
 2995SOL    HW215985   0.259   5.802   5.102 -0.1602 -1.1963 -0.5841
 2996SOL     OW15986   3.952   6.033   0.434  0.1805 -0.1037 -0.1576
 2996SOL    HW115987   4.022   6.031   0.505  0.2673 -1.0207 -0.2652
 2996SOL    HW215988   3.953   5.946   0.383  0.5624  0.7829 -1.7051
 2997SOL     OW15989   3.202   7.023   0.619 -0.1191  0.2518  0.4290
 2997SOL    HW115990   3.191   7.014   0.718  1.0242  0.4507  0.5808
 2997SOL    HW215991   3.282   6.971   0.590  0.1129  0.9846 -0.2476
 2998SOL     OW15992   4.429   6.830   0.237  0.1778 -0.0586 -0.1651
 2998SOL    HW115993   4.477   6.832   0.149 -0.5646  1.7551 -0.5539
 2998SOL    HW215994   4.483   6.879   0.305 -0.4347  0.7632 -0.2571
 2999SOL     OW15995   0.225   0.693   2.880  0.3190 -0.2902 -0.0820
 2999SOL    HW115996   0.157   0.658   2.817  2.0085  0.1497 -2.2063
 2999SOL    HW215997   0.258   0.782   2.848  0.0552  0.7045  2.2850
 3000SOL     OW15998   1.269   3.713   4.285  0.4181  0.0568  0.0758
 3000SOL    HW115999   1.282   3.810   4.306  1.2834  0.1666 -0.9264
 3000SOL    HW216000   1.337   3.659   4.334  0.0656 -0.0318  0.4727
 3001SOL     OW16001   5.292   0.678   3.923 -0.0304  0.3473 -0.0715
 3001SOL    HW116002   5.210   0.699   3.976 -0.0095 -1.6016  0.7543
 3001SOL    HW216003   5.373   0.698   3.979  0.0563  0.9760 -0.4066
 3002SOL     OW16004   4.859   0.267   6.107 -0.1754 -0.1848  0.2871
 3002SOL    HW116005   4.871   0.195   6.175 -2.2577 -1.1843 -0.3830
 3002SOL    HW216006   4.924   0.253   6.032  0.7391 -0.2462  1.0862
 3003SOL     OW16007   6.771   3.250   5.155  0.0947 -0.4122 -0.1542
 3003SOL    HW116008   6.726   3.219   5.239  0.2043  0.9179  0.4142
 3003SOL    HW216009   6.822   3.175   5.114  0.7692 -0.8511  1.4570
 3004SOL     OW16010   4.853   2.858   3.894 -0.1664 -0.7340  1.0875
 3004SOL    HW116011   4.817   2.947   3.866  1.4957 -0.6173 -0.8172
 3004SOL    HW216012   4.784   2.809   3.946 -2.6855 -0.0666 -1.4963
 3005SOL     OW16013   3.612   2.636   1.399  0.0838 -0.1664 -0.2057
 3005SOL    HW116014   3.686   2.622   1.465  1.0918  1.3439 -1.0245
 3005SOL    HW216015   3.649   2.663   1.311 -1.5349  2.9979  0.0029
 3006SOL     OW16016   2.354   1.970   1.355  0.0753  0.0427  0.0108
 3006SOL    HW116017   2.421   2.035   1.389  1.4771 -0.6813 -1.2955
 3006SOL    HW216018   2.329   1.993   1.261 -1.7411  0.4690  0.5730
 3007SOL     OW16019   4.960   3.079   7.335  0.4982 -0.3597 -0.2265
 3007SOL    HW116020   4.982   3.174   7.316 -1.1633 -0.3761 -2.5369
 3007SOL    HW216021   4.879   3.075   7.393  0.5349 -0.3527 -0.1752
 3008SOL     OW16022   1.229   6.290   5.308  0.0027 -0.0817 -0.1743
 3008SOL    HW116023   1.290   6.243   5.372  1.0903  1.8091  0.2047
 3008SOL    HW216024   1.206   6.228   5.232  0.3547 -1.6402  0.9747
 3009SOL     OW16025   3.077   0.257   3.467 -0.2575 -0.3587 -0.1295
 3009SOL    HW116026   3.006   0.300   3.522  2.1425  2.1053  1.1729
 3009SOL    HW216027   3.088   0.162   3.494 -0.7427  0.1887  2.0231
 3010SOL     OW16028   5.883   2.416   7.039 -0.5460  0.6964 -0.4241
 3010SOL    HW116029   5.961   2.390   6.983 -0.2252  1.2094 -0.2255
 3010SOL    HW216030   5.820   2.339   7.048 -0.1251  0.3227 -0.6954
 3011SOL     OW16031   4.620   5.549   7.175  0.5204 -0.4806  0.9043
 3011SOL    HW116032   4.635   5.476   7.107  1.3758 -0.1582  0.7519
 3011SOL    HW216033   4.539   5.601   7.149  1.1151 -0.0611 -0.1311
 3012SOL     OW16034   2.507   2.127   1.504 -0.2791 -0.1336 -0.5842
 3012SOL    HW116035   2.606   2.111   1.492  0.1739  1.5580  0.7621
 3012SOL    HW216036   2.486   2.138   1.601 -1.8557 -0.7170 -0.8414
 3013SOL     OW16037   1.249   2.010   3.079  0.0631 -0.2121  0.0240
 3013SOL    HW116038   1.183   2.043   3.147  1.3023 -0.2969  1.2906
 3013SOL    HW216039   1.339   1.998   3.122  0.3898 -2.2448 -1.1548
 3014SOL     OW16040   5.092   0.749   0.548  0.4939 -0.3591  0.3104
 3014SOL    HW116041   5.081   0.836   0.500  0.5887  0.1152  1.1286
 3014SOL    HW216042   5.189   0.726   0.553  0.5030 -0.2741  0.5119
 3015SOL     OW16043   4.528   7.116   7.287 -0.3135  0.6132  0.1948
 3015SOL    HW116044   4.611   7.172   7.292  1.0149 -1.4534  2.8040
 3015SOL    HW216045   4.554   7.020   7.273 -2.3516  0.1251 -0.3856
 3016SOL     OW16046   2.267   2.671   0.523  0.0279  0.1398  0.5510
 3016SOL    HW116047   2.337   2.602   0.543 -1.3467 -1.0525  1.3821
 3016SOL    HW216048   2.275   2.699   0.428  0.7926 -0.9765  0.2679
 3017SOL     OW16049   6.337   6.270   2.195 -0.0538  0.5360  0.0582
 3017SOL    HW116050   6.314   6.281   2.099  0.1140 -0.2993 -0.0754
 3017SOL    HW216051   6.433   6.242   2.204  0.0398  0.9682  0.4865
 3018SOL     OW16052   3.472   2.046   4.336 -0.1444  0.3343  0.0253
 3018SOL    HW116053   3.454   1.959   4.290 -1.0680 -0.8102  2.4767
 3018SOL    HW216054   3.566   2.048   4.370  0.9719  1.7173 -2.9360
 3019SOL     OW16055   0.928   1.403   1.533 -0.3400  0.0097 -0.3399
 3019SOL    HW116056   0.857   1.406   1.462 -1.2208  1.1847  0.5683
 3019SOL    HW216057   0.886   1.382   1.621  0.6963 -1.0382 -0.0790
 3020SOL     OW16058   2.658   0.123   5.344 -0.2239 -0.0328  0.1218
 3020SOL    HW116059   2.750   0.103   5.311  0.1738 -0.0190  1.2026
 3020SOL    HW216060   2.614   0.190   5.284  0.5744  0.1750 -0.2299
 3021SOL     OW16061   6.757   1.427   7.162 -0.3242  0.8297  0.0860
 3021SOL    HW116062   6.827   1.380   7.108 -0.9207  1.2323 -1.0374
 3021SOL    HW216063   6.668   1.419   7.117 -1.3149 -0.9322  2.2310
 3022SOL     OW16064   4.608   4.655   6.276  0.3717 -0.0476  0.0604
 3022SOL    HW116065   4.696   4.611   6.261 -0.2278 -0.9241 -0.9120
 3022SOL    HW216066   4.623   4.747   6.312  1.6557 -0.5713  0.9160
 3023SOL     OW16067   3.634   6.810   3.058  0.0331 -0.6168  0.5745
 3023SOL    HW116068   3.685   6.823   3.143  0.8302  0.1938 -0.0214
 3023SOL    HW216069   3.624   6.712   3.041  0.0277 -0.7895  1.4962
 3024SOL     OW16070   2.481   4.672   6.330  0.4009  0.4916 -0.0248
 3024SOL    HW116071   2.388   4.689   6.298  0.0002 -3.3777 -1.1228
 3024SOL    HW216072   2.546   4.688   6.255  0.1161 -1.7962 -0.7769
 3025SOL     OW16073   4.706   5.209   2.006  0.5137 -0.3829  0.0319
 3025SOL    HW116074   4.672   5.203   1.912  1.4406  2.5064 -0.5323
 3025SOL    HW216075   4.800   5.243   2.005 -0.4930  2.7102  2.1187
 3026SOL     OW16076   2.641   1.696   6.570 -0.1198 -0.5166  0.7306
 3026SOL    HW116077   2.649   1.598   6.586 -0.7094 -0.5156  1.0631
 3026SOL    HW216078   2.692   1.746   6.640  1.5473 -0.6138 -0.3953
 3027SOL     OW16079   3.750   0.477   1.907 -0.1991  0.5605  0.2745
 3027SOL    HW116080   3.844   0.496   1.877 -0.0688 -1.8611 -0.9993
 3027SOL    HW216081   3.693   0.556   1.888  0.8374  0.7477 -2.3835
 3028SOL     OW16082   2.796   4.618   0.513  0.4565  0.3021 -0.6775
 3028SOL    HW116083   2.822   4.593   0.420 -0.5660 -0.2546 -0.8208
 3028SOL    HW216084   2.707   4.663   0.512  0.2625 -0.0566  0.0666
 3029SOL     OW16085   0.807   5.858   6.014 -0.0047  0.0208  0.2579
 3029SOL    HW116086   0.739   5.906   5.957  2.8782  0.3090 -3.0949
 3029SOL    HW216087   0.851   5.923   6.075  1.0764  0.8889 -1.4350
 3030SOL     OW16088   0.537   1.648   6.995 -0.6744 -0.4651  0.7794
 3030SOL    HW116089   0.479   1.729   7.003 -1.4633 -1.0361  0.7791
 3030SOL    HW216090   0.564   1.617   7.086  0.3290  0.2878  0.7618
 3031SOL     OW16091   3.643   4.209   3.187  0.1862  0.2008  0.5520
 3031SOL    HW116092   3.741   4.189   3.196  0.4651  0.8416 -0.8669
 3031SOL    HW216093   3.601   4.211   3.277  1.3579 -0.7289  1.1324
 3032SOL     OW16094   6.257   5.576   1.484 -0.3921  0.1641  0.1901
 3032SOL    HW116095   6.273   5.659   1.537  0.6316 -0.1125  0.3389
 3032SOL    HW216096   6.166   5.579   1.442 -1.7078 -0.1447  2.9434
 3033SOL     OW16097   6.929   3.121   6.342 -0.3852  0.5476  0.2427
 3033SOL    HW116098   6.898   3.040   6.293  0.9480  0.6435 -0.7823
 3033SOL    HW216099   6.855   3.155   6.400 -0.7745 -1.6943  1.0901
 3034SOL     OW16100   4.312   6.382   3.285 -0.1673  0.2683  0.2053
 3034SOL    HW116101   4.240   6.448   3.267  1.2240  1.6338 -0.4799
 3034SOL    HW216102   4.371   6.416   3.358  1.8927  0.8983 -1.6803
 3035SOL     OW16103   4.812   1.729   2.187 -0.1692  0.5543 -0.4844
 3035SOL    HW116104   4.834   1.706   2.282  0.7093  0.7337 -0.6422
 3035SOL    HW216105   4.844   1.821   2.166 -0.3513  0.5118 -0.9573
 3036SOL     OW16106   2.130   5.522   5.546  0.6208 -0.7314 -0.1119
 3036SOL    HW116107   2.134   5.422   5.555 -2.5323 -0.8632  0.4628
 3036SOL    HW216108   2.054   5.557   5.600  0.5258  1.7871 -1.7998
 3037SOL     OW16109   3.942   4.683   5.608 -0.0206  0.5038 -0.1783
 3037SOL    HW116110   3.858   4.631   5.590 -1.3976  2.9014 -0.9589
 3037SOL    HW216111   4.016   4.649   5.551 -1.2894  0.3746 -1.7808
 3038SOL     OW16112   6.644   5.864   3.659 -0.2133 -0.0400 -0.0527
 3038SOL    HW116113   6.667   5.774   3.696 -2.2670  0.1854  1.9312
 3038SOL    HW216114   6.606   5.854   3.567  0.5257 -1.0972 -0.2435
 3039SOL     OW16115   2.635   1.427   6.580 -0.3449  0.6695 -0.4245
 3039SOL    HW116116   2.727   1.386   6.578  0.4273  2.3413 -0.1119
 3039SOL    HW216117   2.584   1.400   6.499 -0.1443 -1.5473  0.1489
 3040SOL     OW16118   0.125   2.391   3.761  0.1145  0.5132 -0.2249
 3040SOL    HW116119   0.066   2.468   3.736 -0.5012 -0.5095 -2.0613
 3040SOL    HW216120   0.119   2.321   3.690  1.8812 -0.5480  0.6438
 3041SOL     OW16121   5.658   5.788   7.124  0.1507  0.0812 -0.2822
 3041SOL    HW116122   5.625   5.723   7.192  0.7207 -0.1622 -0.2299
 3041SOL    HW216123   5.588   5.856   7.105 -1.1239 -1.5478 -1.6131
 3042SOL     OW16124   1.451   6.030   0.955 -0.2496  0.4545 -0.2695
 3042SOL    HW116125   1.467   6.106   1.018 -2.7844  0.7142  0.1204
 3042SOL    HW216126   1.534   5.976   0.947  1.3270  2.7252  0.1646
 3043SOL     OW16127   0.472   0.788   1.279 -0.7669 -0.1959  0.3715
 3043SOL    HW116128   0.434   0.827   1.195 -1.0426 -1.6159 -0.1863
 3043SOL    HW216129   0.399   0.780   1.347  0.1656  4.2266  2.0367
 3044SOL     OW16130   2.907   3.609   2.892 -0.3516  0.1560 -0.0344
 3044SOL    HW116131   2.901   3.648   2.984  0.1083 -0.2312  0.1663
 3044SOL    HW216132   2.973   3.660   2.838 -1.5062  1.1238 -0.5343
 3045SOL     OW16133   6.927   6.923   1.187 -0.2131  0.0646  0.2008
 3045SOL    HW116134   6.829   6.937   1.176 -0.0791  0.3353 -0.6757
 3045SOL    HW216135   6.977   6.997   1.142  0.3835  0.3762  1.3579
 3046SOL     OW16136   0.543   0.890   4.650 -0.0323 -0.5691  0.7114
 3046SOL    HW116137   0.512   0.842   4.732  1.2299 -1.8127  0.4726
 3046SOL    HW216138   0.643   0.895   4.650 -0.0854  0.6238 -0.0838
 3047SOL     OW16139   2.516   6.999   1.478 -0.3180 -0.5935  0.3185
 3047SOL    HW116140   2.525   7.093   1.443  1.9253 -1.1445 -0.6668
 3047SOL    HW216141   2.437   6.994   1.538  0.0088  2.1551  1.0554
 3048SOL     OW16142   3.565   5.025   6.220  0.2624  0.5208  0.2594
 3048SOL    HW116143   3.487   4.964   6.221  1.2598 -0.7801  1.5092
 3048SOL    HW216144   3.542   5.110   6.267  0.9901 -1.7258  4.9404
 3049SOL     OW16145   3.755   2.639   5.201 -0.0979 -0.2547 -0.2983
 3049SOL    HW116146   3.759   2.607   5.295 -1.0578  2.7134  0.8005
 3049SOL    HW216147   3.847   2.639   5.161  0.3675 -1.1307  0.7607
 3050SOL     OW16148   0.908   6.178   3.961 -0.5232 -0.2838 -0.2883
 3050SOL    HW116149   0.836   6.218   4.017 -1.4204 -1.3066 -0.7024
 3050SOL    HW216150   0.922   6.235   3.880  1.5923  1.8433  1.5090
 3051SOL     OW16151   6.580   4.382   6.441 -0.5770 -0.5625  0.7375
 3051SOL    HW116152   6.606   4.423   6.354  1.0624 -1.1244  0.9530
 3051SOL    HW216153   6.563   4.455   6.508  0.9134 -0.1853  0.7216
 3052SOL     OW16154   3.605   5.994   1.671 -0.2540 -0.3384 -0.4285
 3052SOL    HW116155   3.604   6.024   1.576 -0.8502 -0.0512 -0.3359
 3052SOL    HW216156   3.511   5.973   1.700  0.0780 -1.6803 -0.3035
 3053SOL     OW16157   2.971   2.873   3.991  0.3745 -0.0535  0.3554
 3053SOL    HW116158   3.052   2.928   3.972 -0.5371  0.8159 -1.0907
 3053SOL    HW216159   2.999   2.782   4.022  1.9054 -0.3750 -1.8854
 3054SOL     OW16160   6.763   7.220   1.205  0.1640  0.3525 -0.5259
 3054SOL    HW116161   6.698   7.146   1.192  0.9203 -0.3157 -0.5096
 3054SOL    HW216162   6.735   7.277   1.282 -0.9288  0.6471 -1.1275
 3055SOL     OW16163   2.441   1.431   0.711 -0.4137 -0.1863 -0.2745
 3055SOL    HW116164   2.394   1.471   0.790  0.8816 -0.6116  0.7454
 3055SOL    HW216165   2.470   1.338   0.734  0.6030 -0.0592 -0.9950
 3056SOL     OW16166   6.985   2.715   4.794 -0.2528 -0.0612 -0.6674
 3056SOL    HW116167   6.941   2.803   4.776 -2.2805 -1.0486 -0.6808
 3056SOL    HW216168   6.931   2.642   4.753  1.3884 -1.3379 -0.6223
 3057SOL     OW16169   1.230   3.265   0.007  0.6627  0.2475 -0.0969
 3057SOL    HW116170   1.181   3.328   0.067  0.2038 -0.5057  0.3254
 3057SOL    HW216171   1.266   3.189   0.061  2.3445  0.8187 -0.3865
 3058SOL     OW16172   6.259   6.424   5.868  0.5518 -0.6681 -0.2663
 3058SOL    HW116173   6.237   6.418   5.771 -0.5658 -1.5401  0.0277
 3058SOL    HW216174   6.303   6.512   5.887 -0.9159  0.3102 -1.2392
 3059SOL     OW16175   2.754   3.736   4.299 -0.2876  0.0321 -0.8231
 3059SOL    HW116176   2.700   3.676   4.241 -1.1236  0.2617 -0.2990
 3059SOL    HW216177   2.693   3.788   4.359  0.5088  0.3633 -0.2845
 3060SOL     OW16178   0.306   0.956   0.036  0.5025  1.2311  0.6426
 3060SOL    HW116179   0.327   1.000  -0.052 -1.8376 -0.9876 -1.1160
 3060SOL    HW216180   0.274   0.862   0.019 -1.5699  1.3052  3.7382
 3061SOL     OW16181   1.471   7.257   3.466 -0.3836 -0.5699  0.5056
 3061SOL    HW116182   1.567   7.236   3.487 -0.6785 -0.5744  1.9328
 3061SOL    HW216183   1.438   7.326   3.530 -1.3035 -0.5034 -0.0391
 3062SOL     OW16184   6.592   4.266   0.025 -0.3595 -0.1228  0.0758
 3062SOL    HW116185   6.642   4.268  -0.062  0.2094  1.3984  0.4255
 3062SOL    HW216186   6.653   4.237   0.098 -0.2216  0.8825  0.3595
 3063SOL     OW16187   1.250   4.556   3.233 -0.0936 -0.0737 -0.0609
 3063SOL    HW116188   1.258   4.489   3.158 -0.0180 -0.8761  0.6571
 3063SOL    HW216189   1.209   4.512   3.313 -1.5486  1.1701 -0.0974
 3064SOL     OW16190   6.595   0.534   5.895 -0.3132  0.2460  1.2302
 3064SOL    HW116191   6.671   0.534   5.829 -0.3594  0.1204  1.1782
 3064SOL    HW216192   6.618   0.595   5.971  0.2688 -0.5685  1.7106
 3065SOL     OW16193   4.381   5.669   7.092 -0.2096  0.2006  0.1483
 3065SOL    HW116194   4.351   5.671   6.997 -2.5420  0.5017  0.8624
 3065SOL    HW216195   4.367   5.759   7.134  1.0211  0.1411  0.7228
 3066SOL     OW16196   6.623   1.333   1.562 -0.8298 -0.0750 -0.1320
 3066SOL    HW116197   6.548   1.305   1.502 -1.0898  2.3363 -0.9780
 3066SOL    HW216198   6.700   1.363   1.507 -0.6933  1.2056  0.7410
 3067SOL     OW16199   4.257   3.778   0.117  0.1829 -0.4711 -0.0555
 3067SOL    HW116200   4.313   3.696   0.126 -0.4990 -0.8090  1.1290
 3067SOL    HW216201   4.317   3.858   0.109  0.8430 -1.0315 -0.8464
 3068SOL     OW16202   7.016   3.142   1.282 -0.3422  0.3589 -0.3667
 3068SOL    HW116203   7.014   3.044   1.263  0.3042  0.2558  0.0641
 3068SOL    HW216204   6.986   3.193   1.202  0.2787 -0.1540 -0.9287
 3069SOL     OW16205   0.894   5.365   1.820 -0.6380  0.2028 -0.4708
 3069SOL    HW116206   0.882   5.385   1.917 -0.3503  0.4760 -0.4914
 3069SOL    HW216207   0.876   5.447   1.766 -0.3108  0.1808 -0.6158
 3070SOL     OW16208   6.026   3.403   3.139 -0.8131  0.2517 -0.4380
 3070SOL    HW116209   5.954   3.406   3.070 -1.8984  0.1719  0.6723
 3070SOL    HW216210   5.985   3.399   3.230  0.5946  1.2283  0.2629
 3071SOL     OW16211   5.121   4.615   6.080 -0.1482 -0.1914 -0.0114
 3071SOL    HW116212   5.043   4.584   6.026 -0.3994  1.0236 -0.3725
 3071SOL    HW216213   5.193   4.649   6.019  0.6252 -1.2107  0.3223
 3072SOL     OW16214   4.366   0.800   2.275 -0.1312 -0.1750  0.4577
 3072SOL    HW116215   4.374   0.703   2.299 -0.0134 -0.2484  0.1246
 3072SOL    HW216216   4.397   0.856   2.352  0.0784 -0.4075  0.5441
 3073SOL     OW16217   0.298   1.810   0.349 -0.3390  0.0228  0.2042
 3073SOL    HW116218   0.198   1.804   0.339 -0.5646  1.3913  1.5011
 3073SOL    HW216219   0.333   1.880   0.287 -0.4921  1.2312  1.4562
 3074SOL     OW16220   1.895   5.002   2.283 -0.7921 -0.1456 -0.0448
 3074SOL    HW116221   1.832   4.924   2.288 -0.0836 -0.6742  0.7756
 3074SOL    HW216222   1.843   5.085   2.262 -1.8026 -0.5445  0.7916
 3075SOL     OW16223   6.818   0.956   7.110  0.0324 -0.0373 -0.1744
 3075SOL    HW116224   6.876   1.012   7.051  0.6174  0.8881  1.2382
 3075SOL    HW216225   6.756   1.015   7.161  1.5320 -0.5073  2.2895
 3076SOL     OW16226   7.092   2.015   2.515  0.3172  0.3829  0.1016
 3076SOL    HW116227   7.013   1.963   2.483  0.7064 -0.5443  0.6487
 3076SOL    HW216228   7.064   2.109   2.535 -0.7539 -0.0900  0.8276
 3077SOL     OW16229   1.368   0.351   1.268  0.9480  0.1692  0.2970
 3077SOL    HW116230   1.291   0.305   1.223  0.7496  0.5419  0.2562
 3077SOL    HW216231   1.446   0.356   1.206  0.6259  0.8209 -0.0643
 3078SOL     OW16232   1.031   3.481   1.025 -0.1241 -0.2782 -1.0326
 3078SOL    HW116233   1.126   3.489   0.994  0.2388 -0.1338  0.0865
 3078SOL    HW216234   0.986   3.570   1.016  0.0706 -0.1615 -0.8489
 3079SOL     OW16235   3.481   0.930   4.810  1.1240  0.5197 -0.2646
 3079SOL    HW116236   3.567   0.943   4.761  1.8313 -2.1648  0.1709
 3079SOL    HW216237   3.413   0.890   4.749  0.6916  1.1305 -0.1818
 3080SOL     OW16238   4.840   6.095   6.568  0.0284 -0.2490  0.1667
 3080SOL    HW116239   4.799   6.045   6.644  0.2416 -1.9060 -0.7995
 3080SOL    HW216240   4.908   6.159   6.603  0.3999 -1.2693  1.3412
 3081SOL     OW16241   2.826   4.605   3.729 -0.2206 -0.3159 -0.6981
 3081SOL    HW116242   2.892   4.538   3.695 -0.4569 -0.7128 -0.3778
 3081SOL    HW216243   2.872   4.670   3.789 -0.3885 -1.4518  0.6812
 3082SOL     OW16244   3.058   0.071   1.902  0.3823 -0.0805 -0.0434
 3082SOL    HW116245   3.136   0.132   1.891  0.4155 -0.3532 -1.4273
 3082SOL    HW216246   3.076   0.007   1.978  0.1986  1.8081  1.6361
 3083SOL     OW16247   3.046   3.034   4.762  0.0018 -0.1504  0.0668
 3083SOL    HW116248   3.101   3.045   4.679 -1.2141  0.0964 -0.7041
 3083SOL    HW216249   3.073   3.103   4.829  1.0526 -0.4094 -0.0760
 3084SOL     OW16250   1.847   0.015   7.253  0.0417 -0.9944  0.2100
 3084SOL    HW116251   1.839  -0.069   7.307  2.3246 -1.8386 -0.6869
 3084SOL    HW216252   1.806   0.001   7.163  0.0817 -1.0179  0.1956
 3085SOL     OW16253   6.051   5.095   3.195  0.1205 -0.1387 -0.1162
 3085SOL    HW116254   6.009   5.007   3.175  0.7833 -0.2965 -0.8566
 3085SOL    HW216255   6.076   5.140   3.109  1.0497  0.1493  0.2899
 3086SOL     OW16256   6.352   4.370   1.294  0.1800 -0.2341 -0.4723
 3086SOL    HW116257   6.320   4.293   1.350  0.0110 -0.3994 -0.7912
 3086SOL    HW216258   6.322   4.456   1.336  1.9762 -0.2548  0.9038
 3087SOL     OW16259   3.240   5.906   4.769 -0.2895  0.4033  0.4390
 3087SOL    HW116260   3.241   6.005   4.785 -0.1946  0.4166  0.3572
 3087SOL    HW216261   3.162   5.882   4.711  1.1182  0.7690 -1.6526
 3088SOL     OW16262   0.196   1.948   2.922 -0.3100  0.5565  0.3403
 3088SOL    HW116263   0.258   1.901   2.859  0.3223  0.9526  0.6640
 3088SOL    HW216264   0.221   1.924   3.016 -1.0537  0.2096  0.4523
 3089SOL     OW16265   7.165   4.311   6.764 -0.0083 -0.1913  0.1213
 3089SOL    HW116266   7.077   4.351   6.789 -0.2213 -0.8390  0.3963
 3089SOL    HW216267   7.162   4.281   6.669  0.1307  0.3774 -0.0667
 3090SOL     OW16268   5.399   6.494   6.261 -0.0952 -0.0434 -0.9506
 3090SOL    HW116269   5.401   6.487   6.161 -0.3048 -0.2685 -0.9394
 3090SOL    HW216270   5.319   6.447   6.296  0.7774 -1.2827 -0.5760
 3091SOL     OW16271   3.281   0.708   6.512 -0.3356 -0.2090  0.2589
 3091SOL    HW116272   3.375   0.724   6.545 -0.9559 -0.5501  2.2837
 3091SOL    HW216273   3.265   0.610   6.506 -0.7688 -0.1569  0.5552
 3092SOL     OW16274   5.720   2.850   1.951 -0.0934 -0.6403 -0.1751
 3092SOL    HW116275   5.684   2.855   1.858  1.3531 -0.7224 -0.7541
 3092SOL    HW216276   5.730   2.942   1.989  1.0200 -0.4976 -0.7873
 3093SOL     OW16277   4.846   6.048   2.229 -0.3648  0.0131 -0.2238
 3093SOL    HW116278   4.875   6.124   2.171  0.0214 -0.4379 -0.6206
 3093SOL    HW216279   4.772   5.999   2.183 -1.1548  0.6108  0.3789
 3094SOL     OW16280   1.168   7.205   6.932  0.4760  0.3965  0.4927
 3094SOL    HW116281   1.131   7.289   6.973  0.1244 -0.3667  1.7802
 3094SOL    HW216282   1.258   7.223   6.892  0.5602  1.3034  1.0883
 3095SOL     OW16283   0.097   2.642   2.103 -0.0859  0.5521 -0.4783
 3095SOL    HW116284   0.165   2.705   2.065 -0.3323  1.3848  0.4368
 3095SOL    HW216285   0.045   2.601   2.029  1.3860 -0.0710 -1.1895
 3096SOL     OW16286   4.872   5.320   3.783 -0.2938 -0.3217  0.3736
 3096SOL    HW116287   4.907   5.302   3.691  0.2613 -0.9681  0.7101
 3096SOL    HW216288   4.943   5.365   3.837 -0.2782 -0.8320  0.7861
 3097SOL     OW16289   2.760   7.139   5.196 -0.2538 -0.1068  0.1425
 3097SOL    HW116290   2.720   7.048   5.182  0.7714 -0.5441  0.0069
 3097SOL    HW216291   2.729   7.175   5.284 -2.1388  0.2129 -0.6313
 3098SOL     OW16292   4.623   0.646   0.744 -0.1871  0.3770  0.4074
 3098SOL    HW116293   4.720   0.626   0.761 -0.3121 -1.5117 -0.9047
 3098SOL    HW216294   4.606   0.743   0.759  2.0431  0.8491  0.0778
 3099SOL     OW16295   2.693   3.158   3.531 -0.0028 -0.2690  0.4874
 3099SOL    HW116296   2.667   3.065   3.557 -0.6190  0.2794  1.9139
 3099SOL    HW216297   2.785   3.157   3.493  0.4870 -1.2877  1.6611
 3100SOL     OW16298   5.400   6.216   4.121 -0.0489  0.2399 -0.1539
 3100SOL    HW116299   5.487   6.250   4.155 -0.0696 -1.7688  2.1063
 3100SOL    HW216300   5.413   6.123   4.086 -1.0471  0.3910 -0.9316
 3101SOL     OW16301   1.377   2.992   1.929 -0.2246 -0.1070 -0.0823
 3101SOL    HW116302   1.467   2.951   1.946 -0.1256 -0.3115 -1.0875
 3101SOL    HW216303   1.308   2.943   1.982  0.3751  0.6337  1.4212
 3102SOL     OW16304   0.450   3.695   6.231 -0.3360  0.2281  0.0421
 3102SOL    HW116305   0.469   3.633   6.156 -1.1733 -0.0746  0.0684
 3102SOL    HW216306   0.474   3.652   6.318  0.3726  0.4729 -0.0293
 3103SOL     OW16307   0.770   1.063   6.706 -0.2684 -0.0907  0.5246
 3103SOL    HW116308   0.686   1.078   6.654 -0.9291  0.6591  1.8091
 3103SOL    HW216309   0.806   1.151   6.738  0.2833 -0.5268  1.1133
 3104SOL     OW16310   4.628   0.502   5.236  1.0044  0.4705  0.1714
 3104SOL    HW116311   4.689   0.436   5.192 -0.1870 -0.3063 -0.3363
 3104SOL    HW216312   4.533   0.484   5.208  0.5172  1.5607  1.0739
 3105SOL     OW16313   6.303   5.222   5.648 -0.3911  0.2897  0.0726
 3105SOL    HW116314   6.334   5.147   5.590 -1.0249  0.2401 -0.2008
 3105SOL    HW216315   6.206   5.211   5.668 -0.6560  1.4152 -0.5424
 3106SOL     OW16316   7.163   5.762   6.123 -0.5342  0.3576  0.5138
 3106SOL    HW116317   7.206   5.692   6.066 -0.3896 -0.0323  1.0984
 3106SOL    HW216318   7.227   5.789   6.195 -0.6053  1.0670  0.3105
 3107SOL     OW16319   2.632   2.622   3.552  0.2730  0.0381  0.6584
 3107SOL    HW116320   2.599   2.601   3.460 -0.1782  0.9135  0.6138
 3107SOL    HW216321   2.651   2.536   3.601 -1.1061 -0.4720  0.3336
 3108SOL     OW16322   0.234   2.496   4.438 -0.4712 -0.2126 -0.9447
 3108SOL    HW116323   0.240   2.476   4.340 -0.4104 -0.6425 -0.8562
 3108SOL    HW216324   0.285   2.426   4.488 -0.7122 -0.1307 -0.5905
 3109SOL     OW16325   6.033   4.758   3.732 -0.5087  0.6774  0.1845
 3109SOL    HW116326   6.043   4.696   3.654 -1.3374  1.2001 -0.3476
 3109SOL    HW216327   6.008   4.849   3.699 -1.0552  0.8536  1.0695
 3110SOL     OW16328   4.273   2.260   3.742  0.4656  0.2508 -0.1096
 3110SOL    HW116329   4.208   2.284   3.669 -0.7612 -1.9250  0.2022
 3110SOL    HW216330   4.239   2.295   3.829 -0.1553 -0.5702 -0.0044
 3111SOL     OW16331   7.128   4.388   5.326  0.4188 -0.5084 -0.3345
 3111SOL    HW116332   7.156   4.380   5.422  2.5088  0.6077 -0.8175
 3111SOL    HW216333   7.182   4.324   5.270  0.5575  0.1911 -1.0061
 3112SOL     OW16334   0.295   3.573   7.240  0.0054  0.3361 -0.7666
 3112SOL    HW116335   0.327   3.569   7.335 -0.4546 -0.2365 -0.6357
 3112SOL    HW216336   0.221   3.508   7.227  0.9560 -0.5618 -1.8554
 3113SOL     OW16337   7.137   5.272   5.983  0.1267 -0.2779 -0.1505
 3113SOL    HW116338   7.047   5.308   6.008  0.9002  0.9658  0.8943
 3113SOL    HW216339   7.180   5.230   6.063 -0.5679 -3.2344 -1.2309
 3114SOL     OW16340   0.627   3.226   7.165 -0.2875 -0.8921 -0.4523
 3114SOL    HW116341   0.606   3.221   7.067 -3.1036 -0.0473  0.0623
 3114SOL    HW216342   0.552   3.185   7.217 -0.2680  1.4076  1.4753
 3115SOL     OW16343   2.411   6.297   0.398 -0.0804 -0.2387 -0.7715
 3115SOL    HW116344   2.360   6.254   0.473  0.9791  0.1045  0.1752
 3115SOL    HW216345   2.348   6.348   0.340 -0.8082  0.3730  0.5140
 3116SOL     OW16346   4.511   1.096   6.834 -0.0002  0.4977  0.1044
 3116SOL    HW116347   4.422   1.136   6.860 -0.1586 -0.4632  1.0684
 3116SOL    HW216348   4.579   1.119   6.904  0.4979  1.1761 -0.6004
 3117SOL     OW16349   5.994   5.424   6.288 -0.5485  0.3679 -0.0518
 3117SOL    HW116350   6.004   5.466   6.378 -1.2758  0.8157 -0.1768
 3117SOL    HW216351   6.068   5.453   6.228 -1.6736  2.4127 -0.4965
 3118SOL     OW16352   2.064   4.515   5.491 -0.2138  0.1162  0.3687
 3118SOL    HW116353   1.992   4.448   5.509 -0.5092  0.3485  0.0606
 3118SOL    HW216354   2.026   4.607   5.494 -0.0614  0.2115 -0.4262
 3119SOL     OW16355   5.146   3.694   5.324 -0.4286  0.3912  0.0597
 3119SOL    HW116356   5.171   3.786   5.353 -0.4253  0.4218 -0.0431
 3119SOL    HW216357   5.173   3.679   5.229 -1.8523  0.8344 -0.4360
 3120SOL     OW16358   3.246   6.349   5.652 -0.3935 -0.4361  0.7220
 3120SOL    HW116359   3.298   6.312   5.575 -0.7890 -0.8629  0.6577
 3120SOL    HW216360   3.304   6.351   5.734  0.3159  0.8750  0.2073
 3121SOL     OW16361   1.974   5.963   5.588 -0.0017 -0.0371  0.0116
 3121SOL    HW116362   1.957   5.867   5.610 -0.3551  0.0133 -0.0495
 3121SOL    HW216363   1.918   5.990   5.510  0.3074  0.1405 -0.1497
 3122SOL     OW16364   0.777   4.757   7.204 -0.1741 -0.3017 -0.0188
 3122SOL    HW116365   0.767   4.793   7.111  2.3897  0.0601 -0.1844
 3122SOL    HW216366   0.767   4.658   7.203  1.2236 -0.4542 -0.9429
 3123SOL     OW16367   1.395   0.851   4.110  0.4277  0.0224 -0.2608
 3123SOL    HW116368   1.353   0.804   4.187 -0.1021 -0.2538 -0.7155
 3123SOL    HW216369   1.494   0.848   4.120  0.3459  1.8994  1.5506
 3124SOL     OW16370   6.462   4.388   4.054 -0.0495  0.0920 -0.5356
 3124SOL    HW116371   6.419   4.418   4.139 -1.6759 -2.9250 -0.2160
 3124SOL    HW216372   6.536   4.324   4.074  0.1859  0.0837 -1.3730
 3125SOL     OW16373   7.246   4.720   5.965 -0.4292 -0.0786 -0.0661
 3125SOL    HW116374   7.192   4.802   5.981  1.0473  0.7377  0.8004
 3125SOL    HW216375   7.294   4.694   6.049  1.5938  0.0056 -1.1691
 3126SOL     OW16376   5.553   4.090   5.840 -0.0554 -0.0986  0.3762
 3126SOL    HW116377   5.551   4.044   5.752 -1.6081  0.0797  0.2950
 3126SOL    HW216378   5.555   4.189   5.827  0.2078 -0.0834  0.5334
 3127SOL     OW16379   4.519   6.847   2.789  0.7311 -0.4080  0.7324
 3127SOL    HW116380   4.531   6.861   2.690  0.9106 -1.0505  0.6623
 3127SOL    HW216381   4.445   6.783   2.805  0.1769  0.3084  1.0422
 3128SOL     OW16382   4.906   6.760   3.298 -0.1325 -0.0516 -0.0429
 3128SOL    HW116383   4.871   6.831   3.237 -2.9522 -0.6562  0.7752
 3128SOL    HW216384   4.886   6.785   3.393  1.5390 -0.5236  0.4440
 3129SOL     OW16385   1.265   0.455   2.507 -0.7825  0.0536 -0.3912
 3129SOL    HW116386   1.227   0.436   2.417 -0.2233  1.1573 -0.8661
 3129SOL    HW216387   1.269   0.370   2.560 -1.4816 -0.5242 -1.2561
 3130SOL     OW16388   1.985   3.662   1.270  0.2358  0.3577  0.6404
 3130SOL    HW116389   1.952   3.637   1.179  0.8619  1.3591  0.1360
 3130SOL    HW216390   2.082   3.638   1.278  0.4101  1.0785  0.7308
 3131SOL     OW16391   4.128   2.630   1.826  0.5734 -0.6010 -0.3007
 3131SOL    HW116392   4.184   2.572   1.886  0.1584  0.3973  1.0933
 3131SOL    HW216393   4.188   2.692   1.775  0.8502 -0.4535  0.1879
 3132SOL     OW16394   0.201   5.300   6.153 -0.1823  0.5327 -0.6618
 3132SOL    HW116395   0.294   5.264   6.142 -0.3376 -0.4917  1.1796
 3132SOL    HW216396   0.191   5.384   6.100  1.6111  0.3164 -1.3620
 3133SOL     OW16397   2.820   3.319   5.600  0.3757 -0.2168 -0.2755
 3133SOL    HW116398   2.849   3.373   5.521 -2.5368  1.2118 -0.4259
 3133SOL    HW216399   2.893   3.256   5.625  2.2565  0.9114 -2.6600
 3134SOL     OW16400   1.343   1.519   0.930 -0.5241 -0.1004  0.3481
 3134SOL    HW116401   1.330   1.420   0.921 -1.6894 -0.2353  2.9577
 3134SOL    HW216402   1.407   1.551   0.861  0.2273 -2.7622 -0.2436
 3135SOL     OW16403   6.178   2.082   5.119  0.1850  0.4632  0.8284
 3135SOL    HW116404   6.123   2.006   5.086  0.0172  1.0141 -0.1764
 3135SOL    HW216405   6.152   2.104   5.213 -1.1924  0.6068  0.4188
 3136SOL     OW16406   7.067   4.056   4.582 -0.4887 -0.4773 -0.1388
 3136SOL    HW116407   7.143   4.107   4.543  0.1577  0.2794  2.0316
 3136SOL    HW216408   7.007   4.024   4.508  1.1228  0.1762 -1.7680
 3137SOL     OW16409   4.417   7.207   6.041  0.3026 -0.0732  0.2381
 3137SOL    HW116410   4.321   7.233   6.057 -0.4803 -0.4870 -3.3449
 3137SOL    HW216411   4.477   7.272   6.087 -1.6792  2.9586 -1.2857
 3138SOL     OW16412   3.742   1.520   6.007 -0.3385 -0.2011  0.2139
 3138SOL    HW116413   3.830   1.502   5.962 -1.8887  0.8145 -3.4257
 3138SOL    HW216414   3.734   1.617   6.027 -0.6744 -0.2851  0.4907
 3139SOL     OW16415   0.721   3.526   1.927  0.9006 -0.3870  0.3131
 3139SOL    HW116416   0.725   3.602   1.992  1.1379 -1.6021  1.7570
 3139SOL    HW216417   0.770   3.447   1.965  0.4708 -1.3367 -1.0589
 3140SOL     OW16418   6.907   3.633   4.505  0.1811 -0.1523  0.4742
 3140SOL    HW116419   6.987   3.581   4.477 -0.3940 -1.6882  1.5537
 3140SOL    HW216420   6.854   3.661   4.425  1.0309 -0.3850 -0.1644
 3141SOL     OW16421   3.248   6.582   2.009 -0.4434  0.1016  0.2504
 3141SOL    HW116422   3.228   6.542   1.919 -1.2204  1.2349 -0.0983
 3141SOL    HW216423   3.162   6.600   2.057 -0.0505  0.0999  0.9534
 3142SOL     OW16424   1.630   5.038   3.430 -0.0984  0.2395 -0.0944
 3142SOL    HW116425   1.574   5.033   3.348 -3.1281  2.9376  1.7058
 3142SOL    HW216426   1.699   5.110   3.420  0.0815  0.0023 -0.5604
 3143SOL     OW16427   5.736   6.437   6.146 -1.1147  0.1516  0.0464
 3143SOL    HW116428   5.675   6.403   6.075 -1.3464 -0.5876  0.5887
 3143SOL    HW216429   5.770   6.527   6.121 -0.8307 -0.2985 -1.2158
 3144SOL     OW16430   5.118   4.197   3.854  0.5282 -0.4377  0.0238
 3144SOL    HW116431   5.213   4.166   3.851  1.4836  2.1542  1.2806
 3144SOL    HW216432   5.080   4.178   3.944  0.0958 -0.8331 -0.2454
 3145SOL     OW16433   6.081   7.125   3.880  0.7749  0.0602 -0.4297
 3145SOL    HW116434   6.130   7.045   3.845  0.5817  0.0044 -0.5712
 3145SOL    HW216435   6.049   7.181   3.803  3.5156  1.8573 -0.3384
 3146SOL     OW16436   2.368   6.800   6.005  0.5775 -0.4136  0.2797
 3146SOL    HW116437   2.310   6.869   5.962  2.4285 -0.0234 -1.7293
 3146SOL    HW216438   2.400   6.735   5.935  0.3361 -2.2330  1.8210
 3147SOL     OW16439   4.157   2.373   0.661 -0.1727  0.2694  0.3161
 3147SOL    HW116440   4.117   2.441   0.600  1.0011  0.3789 -0.3494
 3147SOL    HW216441   4.207   2.420   0.735 -2.7717  0.1556  2.1924
 3148SOL     OW16442   1.618   2.786   1.101 -0.1054  0.2023  0.0650
 3148SOL    HW116443   1.686   2.736   1.049 -1.6783 -1.0141 -0.8697
 3148SOL    HW216444   1.569   2.849   1.040 -0.5874  0.2446  0.4902
 3149SOL     OW16445   7.046   1.745   4.273 -0.0774 -0.0710  0.2115
 3149SOL    HW116446   7.030   1.721   4.177  1.7787 -1.3246  0.1937
 3149SOL    HW216447   6.977   1.810   4.303  0.0369  1.3043 -2.3580
 3150SOL     OW16448   5.243   3.726   4.619  0.2597  0.7502 -0.1016
 3150SOL    HW116449   5.166   3.768   4.668  0.3360 -0.3553  1.0163
 3150SOL    HW216450   5.320   3.716   4.682 -0.2523 -2.3705  0.1296
 3151SOL     OW16451   4.403   4.366   3.298  0.1388 -0.7427  0.4082
 3151SOL    HW116452   4.344   4.446   3.313  0.7357 -0.3657  0.7709
 3151SOL    HW216453   4.412   4.350   3.200  1.7280  0.9500  0.2419
 3152SOL     OW16454   3.027   7.244   6.433 -0.4137 -0.1719 -0.0250
 3152SOL    HW116455   3.091   7.186   6.483 -1.7875 -1.9344 -0.2354
 3152SOL    HW216456   3.077   7.306   6.374  1.1133 -0.9617  0.4098
 3153SOL     OW16457   0.955   3.966   7.135  0.3700 -0.4152  0.3498
 3153SOL    HW116458   0.871   3.919   7.162  0.2581 -1.7460 -2.2474
 3153SOL    HW216459   1.032   3.902   7.139  0.4335 -0.5025 -1.9746
 3154SOL     OW16460   5.196   5.367   5.021 -0.1881 -0.6398 -0.2328
 3154SOL    HW116461   5.152   5.327   4.940 -0.5754 -1.3401  0.3167
 3154SOL    HW216462   5.215   5.295   5.087  1.8658 -0.3683 -0.4778
 3155SOL     OW16463   2.466   2.829   0.314 -0.3991  0.1420 -0.5386
 3155SOL    HW116464   2.529   2.829   0.236 -1.7656  3.2230 -1.7436
 3155SOL    HW216465   2.518   2.826   0.399  1.2005 -1.3928 -1.5515
 3156SOL     OW16466   4.769   3.154   2.575  0.2027 -0.0736  0.1216
 3156SOL    HW116467   4.853   3.108   2.604  1.2855  3.1458  2.2808
 3156SOL    HW216468   4.702   3.150   2.649 -0.5613 -0.2123 -0.5733
 3157SOL     OW16469   3.432   3.931   5.611 -0.1030  0.3625 -0.2810
 3157SOL    HW116470   3.352   3.897   5.563 -0.0915  1.4784 -1.1167
 3157SOL    HW216471   3.513   3.918   5.554  0.0623  0.7653 -0.1384
 3158SOL     OW16472   0.563   0.912   0.871  0.2546  0.4874  0.1649
 3158SOL    HW116473   0.476   0.956   0.895  0.2388  0.1439  0.7609
 3158SOL    HW216474   0.622   0.978   0.824 -0.7327  0.4253 -1.2003
 3159SOL     OW16475   0.221   5.043   1.564  0.3197  0.2072  0.0855
 3159SOL    HW116476   0.230   4.964   1.623 -5.5114 -0.3768  0.5210
 3159SOL    HW216477   0.203   5.125   1.619 -0.4559  0.5551 -0.6690
 3160SOL     OW16478   2.854   4.996   1.564  0.0855  0.3061 -0.4980
 3160SOL    HW116479   2.794   4.950   1.629 -0.1592  1.9565  0.4660
 3160SOL    HW216480   2.833   4.965   1.471 -1.5147  0.0820 -0.0726
 3161SOL     OW16481   4.877   5.651   6.533  0.5773  0.1981  0.0012
 3161SOL    HW116482   4.896   5.594   6.453  1.1133  0.9193 -0.3944
 3161SOL    HW216483   4.942   5.629   6.606 -1.3006 -2.0172  1.0554
 3162SOL     OW16484   6.850   1.387   0.741 -0.1917 -0.8542 -0.6988
 3162SOL    HW116485   6.768   1.417   0.791  0.8137 -0.6140  0.8631
 3162SOL    HW216486   6.824   1.319   0.673 -1.5198 -1.8140  0.7121
 3163SOL     OW16487   4.647   6.380   3.424 -0.3821 -0.3114  0.1410
 3163SOL    HW116488   4.705   6.407   3.502 -2.6851 -0.0282  1.8114
 3163SOL    HW216489   4.685   6.419   3.340  0.7949  1.4659  1.4464
 3164SOL     OW16490   3.882   2.385   2.525 -0.3191 -0.4962 -0.1091
 3164SOL    HW116491   3.842   2.469   2.564  0.8026  0.3892 -0.8305
 3164SOL    HW216492   3.822   2.352   2.452 -0.1002  0.4390 -0.7265
 3165SOL     OW16493   3.143   0.425   4.009  0.3241  0.4884 -0.4512
 3165SOL    HW116494   3.109   0.519   4.007  1.0875  0.8022  1.1095
 3165SOL    HW216495   3.239   0.424   3.980  0.8164  0.4244  1.1307
 3166SOL     OW16496   5.383   4.878   6.356 -0.2061 -0.2147  0.3831
 3166SOL    HW116497   5.440   4.803   6.390 -0.2517  0.3038  1.6234
 3166SOL    HW216498   5.429   4.965   6.375 -1.6349  0.2334  1.8399
 3167SOL     OW16499   2.865   4.091   0.437 -0.5944  0.4535 -0.1318
 3167SOL    HW116500   2.890   4.049   0.525  0.3542  0.4828 -0.3860
 3167SOL    HW216501   2.875   4.024   0.364 -3.5161 -0.2445  0.0429
 3168SOL     OW16502   2.248   1.498   0.360 -0.2081  0.1693 -0.2496
 3168SOL    HW116503   2.240   1.564   0.436  0.9733  1.1907 -0.9722
 3168SOL    HW216504   2.318   1.430   0.383  0.8716  1.0666 -0.8104
 3169SOL     OW16505   6.686   2.475   1.068 -0.3873 -0.1123  0.2210
 3169SOL    HW116506   6.754   2.466   1.141  0.4300 -0.5266 -0.5831
 3169SOL    HW216507   6.685   2.391   1.013 -1.2279  0.0703 -0.0451
 3170SOL     OW16508   1.205   4.056   0.889  0.4368  0.1236 -0.5670
 3170SOL    HW116509   1.175   3.987   0.823 -0.4426 -1.5397  1.5196
 3170SOL    HW216510   1.138   4.129   0.894 -1.1990 -1.4310  0.9170
 3171SOL     OW16511   6.002   2.559   3.083  0.1795  0.2734  0.4935
 3171SOL    HW116512   5.940   2.481   3.085  0.7119 -0.1977 -1.2417
 3171SOL    HW216513   6.058   2.559   3.166 -1.5753  0.2734  1.7243
 3172SOL     OW16514   4.172   2.986   3.656 -0.4630  0.0412  0.0081
 3172SOL    HW116515   4.126   2.913   3.606  0.6774  0.0870 -1.1272
 3172SOL    HW216516   4.271   2.969   3.657 -0.1707  1.6075 -0.3411
 3173SOL     OW16517   2.974   2.488   5.940 -0.2413  0.2843  0.1523
 3173SOL    HW116518   3.001   2.402   5.898  1.4544  1.0354 -0.3633
 3173SOL    HW216519   2.932   2.471   6.029 -1.4582 -1.1605 -0.6838
 3174SOL     OW16520   2.786   4.295   5.296 -0.3713  0.0315  0.0013
 3174SOL    HW116521   2.798   4.323   5.200 -0.3053  1.0341  0.2990
 3174SOL    HW216522   2.859   4.231   5.321  1.7455  2.5464  0.4356
 3175SOL     OW16523   3.354   1.151   5.518  0.1163  0.1644 -0.3211
 3175SOL    HW116524   3.289   1.100   5.574  1.2732 -2.8989 -1.6245
 3175SOL    HW216525   3.389   1.229   5.569 -0.3029 -1.4285  2.4906
 3176SOL     OW16526   6.136   4.980   2.158  0.0548  0.2345  0.0355
 3176SOL    HW116527   6.108   5.073   2.133  0.3781  0.4630  0.5143
 3176SOL    HW216528   6.206   4.985   2.229  2.1920 -0.3024 -1.9996
 3177SOL     OW16529   6.181   4.108   1.852 -0.0376 -0.3558 -0.8516
 3177SOL    HW116530   6.108   4.053   1.811  1.5249 -2.7076 -0.6035
 3177SOL    HW216531   6.270   4.074   1.820  1.0313  0.9499  0.6493
 3178SOL     OW16532   3.413   3.495   3.913 -0.1436 -0.3153 -0.3135
 3178SOL    HW116533   3.373   3.404   3.925  1.4659 -1.0669 -0.4997
 3178SOL    HW216534   3.410   3.544   4.000  1.1686 -1.4723  0.4111
 3179SOL     OW16535   5.257   1.818   2.710  0.2670  0.6291  0.2339
 3179SOL    HW116536   5.253   1.720   2.692 -1.9891  0.4497  1.5198
 3179SOL    HW216537   5.340   1.840   2.760 -0.2282 -0.9527  1.7719
 3180SOL     OW16538   0.369   4.922   2.463 -0.0475 -0.5667  0.2280
 3180SOL    HW116539   0.353   4.948   2.559  0.2533 -0.5025  0.2618
 3180SOL    HW216540   0.318   4.839   2.443 -1.3711  0.2832 -0.0063
 3181SOL     OW16541   4.126   0.086   2.195 -0.1139 -0.3667 -0.7802
 3181SOL    HW116542   4.105   0.177   2.159 -3.1061  0.1978  2.1380
 3181SOL    HW216543   4.061   0.020   2.159  0.3118 -0.8425 -0.6839
 3182SOL     OW16544   2.937   0.089   6.654  0.2210  0.5920 -0.3417
 3182SOL    HW116545   3.011   0.085   6.587  0.2454  1.0720 -0.3494
 3182SOL    HW216546   2.910  -0.003   6.680  0.6166  0.4115 -0.5671
 3183SOL     OW16547   2.721   6.830   1.511 -0.1053 -0.4820 -0.0506
 3183SOL    HW116548   2.643   6.887   1.484 -1.0850 -1.4969  0.5669
 3183SOL    HW216549   2.723   6.821   1.610  0.7482 -0.5481 -0.0688
 3184SOL     OW16550   0.525   0.435   0.599 -0.4644  0.1831 -0.2312
 3184SOL    HW116551   0.473   0.502   0.653 -1.2593 -0.0054 -0.7517
 3184SOL    HW216552   0.469   0.403   0.523  0.0322 -0.8269 -0.1816
 3185SOL     OW16553   3.317   7.092   7.274 -0.2094 -0.1338  0.4057
 3185SOL    HW116554   3.273   7.038   7.345 -1.3085  1.0555  0.6411
 3185SOL    HW216555   3.276   7.183   7.270  1.2367  0.5132 -0.3561
 3186SOL     OW16556   1.736   3.765   5.884 -0.2061 -0.3530  0.5940
 3186SOL    HW116557   1.770   3.726   5.798  1.0170  0.4148  0.7086
 3186SOL    HW216558   1.639   3.746   5.893 -0.1245 -1.3550 -0.4602
 3187SOL     OW16559   1.675   3.473   1.544  0.2804 -0.1300  0.0660
 3187SOL    HW116560   1.771   3.457   1.525  0.0588  0.6580 -1.7513
 3187SOL    HW216561   1.658   3.571   1.553 -0.3310 -0.2759  0.5796
 3188SOL     OW16562   4.611   1.714   6.128  0.0186  0.5310  0.3954
 3188SOL    HW116563   4.632   1.808   6.103 -0.4786  0.5909  0.2034
 3188SOL    HW216564   4.568   1.711   6.219 -1.4090  0.6425 -0.2585
 3189SOL     OW16565   4.967   3.637   6.791 -0.6106 -0.4836 -0.5360
 3189SOL    HW116566   4.933   3.712   6.736  0.7189 -0.2187 -1.0143
 3189SOL    HW216567   5.065   3.648   6.806 -0.4358 -2.0270 -0.4609
 3190SOL     OW16568   4.036   1.550   5.963  0.3345  0.3860  0.1367
 3190SOL    HW116569   4.077   1.547   5.872 -2.2803 -2.2297 -1.0271
 3190SOL    HW216570   4.042   1.643   5.999  2.1431  1.2813 -2.3391
 3191SOL     OW16571   1.359   3.995   2.133  0.0387 -0.2411  0.2146
 3191SOL    HW116572   1.279   4.048   2.103 -0.2814 -0.2206  1.0976
 3191SOL    HW216573   1.329   3.918   2.189  0.6306 -0.3194  0.4239
 3192SOL     OW16574   3.201   3.235   0.752 -0.3377  0.2016  0.3192
 3192SOL    HW116575   3.203   3.266   0.657  2.6355  1.3316  0.6896
 3192SOL    HW216576   3.200   3.315   0.813 -3.2744 -0.5016  1.2829
 3193SOL     OW16577   1.246   3.966   7.355  0.0028 -0.0323 -0.4305
 3193SOL    HW116578   1.325   3.954   7.295  0.4290 -0.6658  0.2507
 3193SOL    HW216579   1.257   4.049   7.409 -0.0245  0.1361 -0.6825
 3194SOL     OW16580   6.786   3.142   4.490 -0.5302  0.4935  0.1455
 3194SOL    HW116581   6.785   3.177   4.584 -1.0660  1.1163 -0.0794
 3194SOL    HW216582   6.820   3.048   4.489 -2.6323 -0.3310  1.2666
 3195SOL     OW16583   6.815   4.170   5.095  0.1745 -0.0523 -0.1450
 3195SOL    HW116584   6.884   4.233   5.058  0.5699 -2.2568 -3.3444
 3195SOL    HW216585   6.745   4.154   5.026 -2.0038 -0.1298  2.0394
 3196SOL     OW16586   0.172   3.008   7.151 -0.3211 -0.1752  0.2033
 3196SOL    HW116587   0.213   3.068   7.219  0.8458 -0.8014  0.0689
 3196SOL    HW216588   0.142   2.923   7.195 -2.3164  0.6434  0.4620
 3197SOL     OW16589   5.718   6.886   0.337 -0.6541  0.1824 -0.7537
 3197SOL    HW116590   5.749   6.890   0.242  1.2116  0.4326 -0.1583
 3197SOL    HW216591   5.681   6.796   0.357 -1.6941  0.3382 -1.8913
 3198SOL     OW16592   3.254   5.845   3.188  0.5636 -0.4237  0.2690
 3198SOL    HW116593   3.349   5.849   3.221 -0.2013  1.0322  2.4000
 3198SOL    HW216594   3.223   5.750   3.187  1.4088 -0.7257  1.4663
 3199SOL     OW16595   6.273   0.986   1.738 -0.2323  0.1306 -0.3857
 3199SOL    HW116596   6.295   0.961   1.832  1.4101  0.3638 -0.6930
 3199SOL    HW216597   6.216   1.068   1.738  0.6803  0.7779  0.3751
 3200SOL     OW16598   6.538   7.247   2.454  0.8813  0.0434  0.4265
 3200SOL    HW116599   6.457   7.246   2.513 -0.0951  0.2950 -0.8864
 3200SOL    HW216600   6.528   7.179   2.382  2.4081 -0.7861  0.9769
 3201SOL     OW16601   3.732   5.482   0.608  0.6542  0.0630 -0.0583
 3201SOL    HW116602   3.655   5.524   0.560 -0.0650 -1.1999 -0.0399
 3201SOL    HW216603   3.814   5.537   0.595 -0.2790  1.4880  0.0237
 3202SOL     OW16604   4.540   6.462   3.770  0.4980  0.3798 -0.0210
 3202SOL    HW116605   4.566   6.527   3.841  0.0321  0.2788  0.2420
 3202SOL    HW216606   4.540   6.370   3.808 -0.6736  0.4216  0.0981
 3203SOL     OW16607   5.289   0.247   3.343  0.0152  0.5312 -0.5266
 3203SOL    HW116608   5.248   0.191   3.415  2.0062 -1.1770 -0.6750
 3203SOL    HW216609   5.220   0.266   3.273 -1.3334  0.2976  0.7176
 3204SOL     OW16610   3.315   1.617   0.912  0.0755  0.3879  0.9453
 3204SOL    HW116611   3.393   1.665   0.871 -0.6317  0.7657  0.0164
 3204SOL    HW216612   3.259   1.682   0.963 -0.0603  0.2637  0.9543
 3205SOL     OW16613   5.857   5.391   3.130  0.4967 -0.1287 -0.5336
 3205SOL    HW116614   5.791   5.316   3.123  1.6672 -1.0950 -1.2840
 3205SOL    HW216615   5.826   5.468   3.074  0.3682 -0.8447 -1.4531
 3206SOL     OW16616   5.236   3.141   5.018 -0.0858 -0.1210  0.0445
 3206SOL    HW116617   5.244   3.048   5.055  0.1956 -0.7901 -1.6223
 3206SOL    HW216618   5.179   3.139   4.936 -1.1220  1.4024  0.7200
 3207SOL     OW16619   5.103   4.012   3.191  0.2976 -0.0617 -0.4175
 3207SOL    HW116620   5.029   4.080   3.196  0.7327  0.4766 -1.1727
 3207SOL    HW216621   5.126   3.982   3.284 -0.7965 -0.1608 -0.1701
 3208SOL     OW16622   0.487   0.267   5.359 -0.3072  0.1660  0.1407
 3208SOL    HW116623   0.400   0.307   5.388 -0.3759 -0.4252  0.7440
 3208SOL    HW216624   0.521   0.206   5.430 -0.4848 -1.2867 -1.0021
 3209SOL     OW16625   4.806   3.310   5.044 -0.0988 -0.0572 -0.5231
 3209SOL    HW116626   4.846   3.261   5.122  2.1449 -0.6560 -2.0219
 3209SOL    HW216627   4.815   3.408   5.059  3.3289 -0.1786 -1.4876
 3210SOL     OW16628   6.845   3.212   3.612 -0.8034  0.0294  0.5559
 3210SOL    HW116629   6.831   3.114   3.595 -0.6625  0.0557  0.2742
 3210SOL    HW216630   6.876   3.256   3.527  0.9983 -0.0270  1.1689
 3211SOL     OW16631   6.914   0.219   6.243 -0.3952 -0.6851  0.0111
 3211SOL    HW116632   6.971   0.295   6.212  0.1262 -0.9056  0.4199
 3211SOL    HW216633   6.827   0.219   6.193 -0.3039  0.0441 -0.1465
 3212SOL     OW16634   4.580   0.891   0.845  0.4436  0.1602  0.1478
 3212SOL    HW116635   4.501   0.940   0.808  0.1747  0.0494  0.5711
 3212SOL    HW216636   4.645   0.956   0.882  0.7598  0.2790 -0.5998
 3213SOL     OW16637   1.978   4.446   2.528 -0.7054  0.3414 -0.1996
 3213SOL    HW116638   1.952   4.473   2.621 -0.9472  1.2187 -0.5173
 3213SOL    HW216639   1.999   4.528   2.475 -1.7546 -0.0869 -1.2784
 3214SOL     OW16640   4.704   6.270   6.811 -0.3624 -0.1331  0.3902
 3214SOL    HW116641   4.719   6.306   6.718 -2.4157 -2.2303 -0.8088
 3214SOL    HW216642   4.721   6.171   6.811 -0.4102 -0.1499  2.2730
 3215SOL     OW16643   7.287   7.355   2.375  0.6288 -0.5718 -0.1498
 3215SOL    HW116644   7.374   7.371   2.421  0.9241  1.2687 -1.2939
 3215SOL    HW216645   7.303   7.345   2.276 -0.3636 -1.0795 -0.2635
 3216SOL     OW16646   1.747   2.606   0.955 -0.3238 -0.6551 -0.1940
 3216SOL    HW116647   1.772   2.673   0.885 -0.9962  0.0716  0.2598
 3216SOL    HW216648   1.687   2.537   0.915  1.9528 -2.1240 -1.1686
 3217SOL     OW16649   5.344   0.150   2.869  0.5371 -0.1634  0.1826
 3217SOL    HW116650   5.389   0.180   2.785 -2.2854 -0.2886 -1.4349
 3217SOL    HW216651   5.364   0.053   2.885  0.4101 -0.3583 -0.8050
 3218SOL     OW16652   0.187   2.160   5.960 -0.5065 -0.1374  0.3802
 3218SOL    HW116653   0.091   2.131   5.965 -0.7920  0.6753 -0.3419
 3218SOL    HW216654   0.215   2.199   6.047 -0.6116 -1.0498  0.8283
 3219SOL     OW16655   5.743   1.355   4.307 -0.2182  0.0830 -0.0528
 3219SOL    HW116656   5.677   1.351   4.232 -1.0117  1.2992  0.5438
 3219SOL    HW216657   5.800   1.273   4.307  0.4085  0.4919 -2.5268
 3220SOL     OW16658   3.455   2.928   5.856 -0.5495  0.4199 -0.0242
 3220SOL    HW116659   3.357   2.941   5.847 -0.8623 -0.7870  1.5202
 3220SOL    HW216660   3.474   2.836   5.890  0.9971  1.4447  2.0035
 3221SOL     OW16661   6.795   5.978   2.130  0.2392  0.6523 -0.2708
 3221SOL    HW116662   6.868   5.949   2.068 -2.1674 -2.6879 -1.6550
 3221SOL    HW216663   6.816   5.946   2.222 -0.1096 -1.5246 -0.9162
 3222SOL     OW16664   0.923   3.498   5.275 -0.6302 -0.0911  0.5187
 3222SOL    HW116665   0.829   3.489   5.243 -1.2989  1.8209  1.8228
 3222SOL    HW216666   0.960   3.586   5.245  0.9721 -1.0802 -0.5016
 3223SOL     OW16667   1.258   0.197   2.607 -0.5166  0.0713  0.5393
 3223SOL    HW116668   1.176   0.142   2.621 -0.5600  0.2831  1.1046
 3223SOL    HW216669   1.327   0.142   2.560 -0.4166 -0.5871  1.4626
 3224SOL     OW16670   3.196   2.847   7.085 -0.3623  1.0491  0.3973
 3224SOL    HW116671   3.102   2.855   7.054  0.8991  3.0973 -3.1588
 3224SOL    HW216672   3.235   2.761   7.052  0.2993  2.2182 -1.9997
 3225SOL     OW16673   2.696   7.351   0.850  0.1255  0.1850 -0.1522
 3225SOL    HW116674   2.701   7.276   0.784 -0.5441 -0.5643  0.6486
 3225SOL    HW216675   2.724   7.437   0.805 -0.8606 -0.2198 -1.5529
 3226SOL     OW16676   2.913   0.401   2.445  0.5520  0.4898  0.5936
 3226SOL    HW116677   2.992   0.347   2.472  0.5090  0.9309  1.6406
 3226SOL    HW216678   2.884   0.376   2.353  0.6391 -1.1458  1.0061
 3227SOL     OW16679   5.084   4.614   4.658  0.0761 -0.0666 -0.1945
 3227SOL    HW116680   5.008   4.554   4.682  0.0181 -0.3088 -0.9621
 3227SOL    HW216681   5.164   4.591   4.712 -0.2736 -0.0993  0.3095
 3228SOL     OW16682   5.716   3.646   3.827 -0.1997  0.1582  0.2650
 3228SOL    HW116683   5.646   3.574   3.827 -1.0450  0.9759  0.2745
 3228SOL    HW216684   5.687   3.721   3.768  0.8697  0.3194 -0.0753
 3229SOL     OW16685   7.305   3.048   6.541  0.1527 -0.3544 -0.0370
 3229SOL    HW116686   7.235   3.113   6.512 -0.9664 -0.8279  1.4977
 3229SOL    HW216687   7.385   3.056   6.482  0.0078  2.3582  0.0426
 3230SOL     OW16688   3.218   3.272   0.490  0.2006  0.2702  0.5067
 3230SOL    HW116689   3.162   3.352   0.469 -1.3818 -0.8958  0.2171
 3230SOL    HW216690   3.310   3.302   0.516  0.4917  2.0727 -2.3281
 3231SOL     OW16691   2.419   4.380   6.688 -0.1117 -0.0952  0.2578
 3231SOL    HW116692   2.441   4.394   6.591  1.6677 -2.1310  0.3460
 3231SOL    HW216693   2.497   4.409   6.744 -0.0542 -1.5331  0.9282
 3232SOL     OW16694   0.581   1.086   1.663 -0.0328 -0.3417  0.8246
 3232SOL    HW116695   0.515   1.072   1.589  1.1765  0.0569 -0.3475
 3232SOL    HW216696   0.657   1.022   1.653  0.5133  0.2288  1.2767
 3233SOL     OW16697   3.640   3.926   5.400  0.0341 -0.5011 -0.1676
 3233SOL    HW116698   3.639   4.015   5.354  0.4734 -1.1353 -1.4423
 3233SOL    HW216699   3.734   3.902   5.425  0.0922 -1.1419 -0.9426
 3234SOL     OW16700   4.057   4.396   3.643  0.1037  0.1039  0.1011
 3234SOL    HW116701   4.006   4.358   3.566 -1.2575  0.8930  0.5816
 3234SOL    HW216702   4.124   4.330   3.675  0.9689 -0.0731 -2.0102
 3235SOL     OW16703   3.284   1.554   0.643  0.6813  0.2875 -0.5336
 3235SOL    HW116704   3.282   1.580   0.739  2.3768  0.3500 -0.5082
 3235SOL    HW216705   3.214   1.484   0.626 -1.2610  2.0162  0.2169
 3236SOL     OW16706   5.423   3.619   6.630  0.1300  0.2337 -0.2530
 3236SOL    HW116707   5.496   3.575   6.578 -0.3944  0.7796 -1.4755
 3236SOL    HW216708   5.375   3.683   6.571 -1.8793 -0.7270  0.3100
 3237SOL     OW16709   3.409   2.774   3.908  0.3278 -0.0040 -0.0852
 3237SOL    HW116710   3.449   2.683   3.903 -0.5403 -0.4406  0.8574
 3237SOL    HW216711   3.475   2.841   3.874  1.7424 -0.7446  1.1421
 3238SOL     OW16712   4.429   0.281   2.415  0.3359 -0.1656 -0.3458
 3238SOL    HW116713   4.416   0.250   2.509  1.0198  0.3503 -0.0818
 3238SOL    HW216714   4.449   0.202   2.357 -2.8636 -0.8642 -0.5819
 3239SOL     OW16715   5.666   2.234   0.797  0.2519  0.3383  0.4604
 3239SOL    HW116716   5.606   2.306   0.834  2.3052  1.9557  0.7637
 3239SOL    HW216717   5.724   2.199   0.870 -1.5827 -2.5490  0.5756
 3240SOL     OW16718   0.974   3.002   4.502 -0.4207 -0.4173 -0.1062
 3240SOL    HW116719   1.052   3.064   4.495 -2.3350  2.1596  0.5999
 3240SOL    HW216720   0.902   3.031   4.440 -2.0303 -0.8623  1.4939
 3241SOL     OW16721   4.822   2.893   6.562  0.0338  0.6100  0.5674
 3241SOL    HW116722   4.910   2.915   6.604  0.9958 -0.5798 -0.7506
 3241SOL    HW216723   4.783   2.812   6.606  0.1422  0.4761  0.4195
 3242SOL     OW16724   1.119   0.750   4.041 -0.4244 -0.0753 -0.0553
 3242SOL    HW116725   1.198   0.801   4.074  0.1828 -0.8041 -0.3654
 3242SOL    HW216726   1.037   0.806   4.051  0.4158  1.4721 -1.6682
 3243SOL     OW16727   3.978   5.701   6.544 -0.3964  0.3259 -0.2751
 3243SOL    HW116728   3.958   5.763   6.468 -0.3294 -0.4752 -0.9486
 3243SOL    HW216729   4.022   5.619   6.510  1.8679  1.0123  0.9238
 3244SOL     OW16730   3.972   6.065   2.944 -0.0891  0.3815 -0.1546
 3244SOL    HW116731   3.994   5.971   2.972 -0.5470  0.6604  1.1924
 3244SOL    HW216732   4.028   6.091   2.866 -1.1651 -1.6250 -1.6463
 3245SOL     OW16733   4.119   6.472   0.369  0.6670  0.1098  0.3057
 3245SOL    HW116734   4.138   6.511   0.278 -0.0843 -0.3882 -0.0682
 3245SOL    HW216735   4.174   6.520   0.437  1.3286  0.4162 -0.4246
 3246SOL     OW16736   0.626   1.328   2.092 -0.7297  0.0988  0.7276
 3246SOL    HW116737   0.643   1.388   2.014 -2.7551 -0.5642 -0.2698
 3246SOL    HW216738   0.694   1.344   2.163  1.7798 -0.0169 -1.5941
 3247SOL     OW16739   3.399   3.481   0.244  0.1348  0.2368 -0.0965
 3247SOL    HW116740   3.441   3.390   0.235 -2.2997 -0.8809 -0.4812
 3247SOL    HW216741   3.461   3.540   0.296  1.7149 -1.6700  0.2891
 3248SOL     OW16742   5.369   2.466   0.003  0.5226 -0.0755  0.0083
 3248SOL    HW116743   5.321   2.405  -0.060  0.0157  0.2946  0.0277
 3248SOL    HW216744   5.454   2.498  -0.039  1.4762 -1.8347  0.5089
 3249SOL     OW16745   1.588   3.301   7.272 -0.0252 -0.1474 -0.0056
 3249SOL    HW116746   1.564   3.218   7.321 -0.9339 -0.1509 -0.4378
 3249SOL    HW216747   1.652   3.280   7.198 -2.6045 -0.9943 -2.0885
 3250SOL     OW16748   5.036   5.578   3.057 -0.1113 -0.4753 -0.4123
 3250SOL    HW116749   4.982   5.535   3.130  0.5416  0.0276  0.3856
 3250SOL    HW216750   5.121   5.527   3.044  0.6113  0.4631  0.4561
 3251SOL     OW16751   2.574   3.524   5.346 -0.1536  0.1748 -0.6117
 3251SOL    HW116752   2.620   3.435   5.348 -1.1304 -0.3419 -0.8611
 3251SOL    HW216753   2.475   3.510   5.346 -0.3488  1.2930  1.7989
 3252SOL     OW16754   6.130   4.897   1.763  0.6655 -0.0218  0.1251
 3252SOL    HW116755   6.043   4.851   1.744  1.6490 -0.6315 -3.2249
 3252SOL    HW216756   6.116   4.996   1.762  0.0407 -0.1163 -0.5130
 3253SOL     OW16757   2.800   5.057   3.527 -0.1464 -0.2202 -0.2549
 3253SOL    HW116758   2.852   4.994   3.470 -0.0733  0.5889 -1.0910
 3253SOL    HW216759   2.776   5.012   3.613  0.3027 -1.2278 -0.6504
 3254SOL     OW16760   6.198   0.672   5.647  0.4610 -0.5516 -0.1949
 3254SOL    HW116761   6.195   0.742   5.576  2.4070 -2.3650 -2.1727
 3254SOL    HW216762   6.110   0.625   5.651  0.7159 -1.2540 -2.3110
 3255SOL     OW16763   5.700   5.642   1.191 -0.4925 -0.1775 -0.0349
 3255SOL    HW116764   5.708   5.734   1.151  0.1138 -0.5127 -0.7132
 3255SOL    HW216765   5.779   5.587   1.163 -1.2370 -1.1443 -0.2684
 3256SOL     OW16766   1.816   6.418   6.851 -0.1040 -0.1197  0.3493
 3256SOL    HW116767   1.885   6.480   6.889  0.2868 -0.1159 -0.3553
 3256SOL    HW216768   1.802   6.341   6.913  0.2044  0.1156  0.7105
 3257SOL     OW16769   3.080   6.009   1.171  0.2040  0.3620  0.7166
 3257SOL    HW116770   3.061   6.105   1.188 -3.0131  0.1145 -1.0160
 3257SOL    HW216771   3.058   5.956   1.254  0.8181  0.9657  1.2726
 3258SOL     OW16772   5.228   5.901   6.543  0.1099  0.1831 -0.3702
 3258SOL    HW116773   5.201   5.997   6.543  0.4759  0.2847  1.0435
 3258SOL    HW216774   5.303   5.886   6.607 -0.8580 -1.3015  0.4575
 3259SOL     OW16775   3.321   0.159   1.858 -0.2236 -0.5615  0.3085
 3259SOL    HW116776   3.390   0.125   1.921 -1.0643  0.1051  1.6148
 3259SOL    HW216777   3.339   0.255   1.837 -1.2215 -0.1486  1.3142
 3260SOL     OW16778   6.562   6.382   1.196 -0.0027  0.7005 -0.6370
 3260SOL    HW116779   6.527   6.475   1.203  0.8111  0.8436  2.2498
 3260SOL    HW216780   6.648   6.381   1.146  1.5514  1.9607  1.9657
 3261SOL     OW16781   2.192   1.788   6.737  0.0600  0.5076 -0.1186
 3261SOL    HW116782   2.262   1.792   6.665  0.7005  1.0282  0.5276
 3261SOL    HW216783   2.214   1.713   6.800 -0.1299  0.4812 -0.0844
 3262SOL     OW16784   2.510   2.851   4.124  0.0582  0.0664  0.1602
 3262SOL    HW116785   2.430   2.871   4.068  1.4469  1.4854 -1.3607
 3262SOL    HW216786   2.523   2.924   4.191  0.5347  0.2505 -0.1281
 3263SOL     OW16787   3.540   6.025   5.369 -0.1507 -0.2374  0.3962
 3263SOL    HW116788   3.498   5.987   5.286  0.7353  1.3451 -0.7955
 3263SOL    HW216789   3.478   6.091   5.411  0.4866  0.9372 -0.4940
 3264SOL     OW16790   2.197   4.683   1.292 -0.0252 -0.2680  0.0328
 3264SOL    HW116791   2.274   4.631   1.329  0.1429  0.1247  0.2323
 3264SOL    HW216792   2.142   4.623   1.233  1.7445  0.0539 -2.0065
 3265SOL     OW16793   5.234   6.557   6.784 -0.0543  0.6846 -0.3418
 3265SOL    HW116794   5.206   6.568   6.879  0.0102 -1.7227 -0.0012
 3265SOL    HW216795   5.278   6.468   6.773 -0.8550  0.5653 -2.8216
 3266SOL     OW16796   4.591   5.389   5.284 -0.4044 -0.3053 -0.1190
 3266SOL    HW116797   4.555   5.367   5.194 -0.2848  1.4617 -0.6175
 3266SOL    HW216798   4.545   5.333   5.353 -1.4347 -0.7294 -1.1403
 3267SOL     OW16799   4.004   3.093   6.799  0.1671  0.8243 -0.7175
 3267SOL    HW116800   3.907   3.067   6.799  0.1188  0.8049 -3.8200
 3267SOL    HW216801   4.054   3.033   6.861 -1.3518 -1.0512 -1.2364
 3268SOL     OW16802   4.209   1.150   5.292  0.0313  0.0047  0.3695
 3268SOL    HW116803   4.261   1.098   5.361  0.0197  0.1198  0.4653
 3268SOL    HW216804   4.232   1.247   5.300  1.2055 -0.1569 -0.8171
 3269SOL     OW16805   3.495   2.732   1.068 -0.2076  0.4591  0.0585
 3269SOL    HW116806   3.448   2.814   1.100  0.6990  0.9132  0.2253
 3269SOL    HW216807   3.524   2.745   0.973  0.5971  0.6193  0.3248
 3270SOL     OW16808   0.284   5.297   3.772 -0.0842 -0.0505 -0.0834
 3270SOL    HW116809   0.192   5.272   3.744  0.6862 -1.5283 -1.4157
 3270SOL    HW216810   0.328   5.220   3.818 -0.1470  1.2649  2.2841
 3271SOL     OW16811   2.582   2.868   3.279  0.3881  0.3469  0.1665
 3271SOL    HW116812   2.676   2.835   3.288 -0.2935 -1.4041  1.1896
 3271SOL    HW216813   2.549   2.901   3.368 -0.0726  0.6790 -0.1225
 3272SOL     OW16814   6.147   6.927   0.461 -0.2344  0.4195  0.8375
 3272SOL    HW116815   6.166   6.867   0.539  1.0501  2.1427  1.8992
 3272SOL    HW216816   6.234   6.951   0.417 -0.9870 -0.8849 -1.4032
 3273SOL     OW16817   3.581   5.700   1.917  0.0156 -0.6427 -0.0988
 3273SOL    HW116818   3.678   5.721   1.912 -0.5817  2.1019 -1.9745
 3273SOL    HW216819   3.543   5.697   1.824 -1.5915 -2.1123  0.5853
 3274SOL     OW16820   2.627   6.514   4.199  0.3045 -0.6423  0.1572
 3274SOL    HW116821   2.635   6.457   4.281  2.7180  0.2458  0.5909
 3274SOL    HW216822   2.629   6.611   4.225  3.3674 -0.3255 -1.0822
 3275SOL     OW16823   0.003   3.827   7.109 -0.1516  0.0111 -0.2623
 3275SOL    HW116824  -0.078   3.802   7.056 -0.8570 -0.2201  0.9120
 3275SOL    HW216825  -0.025   3.864   7.197  1.0133  0.5112 -0.0943
 3276SOL     OW16826   1.328   4.782   6.715 -0.2752  0.5544  0.1991
 3276SOL    HW116827   1.275   4.730   6.782  1.5292 -2.0358 -0.3159
 3276SOL    HW216828   1.414   4.735   6.696  0.2606  2.3906 -2.2682
 3277SOL     OW16829   1.530   6.306   0.291 -0.0349 -0.1664  0.3573
 3277SOL    HW116830   1.627   6.283   0.286  0.3466  1.7528 -2.0651
 3277SOL    HW216831   1.519   6.389   0.346 -0.0354  0.8971 -1.2248
 3278SOL     OW16832   5.308   4.608   1.368  0.4346 -0.1002 -0.1931
 3278SOL    HW116833   5.214   4.640   1.357  0.4800 -0.2864 -1.1457
 3278SOL    HW216834   5.313   4.510   1.350  1.0972  0.2191 -1.7914
 3279SOL     OW16835   0.377   0.284   3.242  0.5360  0.2163  0.4193
 3279SOL    HW116836   0.342   0.376   3.226  2.0509  0.5971 -0.8529
 3279SOL    HW216837   0.474   0.289   3.266  0.7584 -1.0672 -0.1711
 3280SOL     OW16838   5.532   3.969   5.358  0.0098  0.0283 -0.6365
 3280SOL    HW116839   5.568   3.910   5.286 -0.7815  0.2094 -1.1802
 3280SOL    HW216840   5.433   3.977   5.349  0.0100  0.7704 -0.0674
 3281SOL     OW16841   5.496   5.715   1.971  0.3860  0.0194 -0.4936
 3281SOL    HW116842   5.406   5.682   2.000 -1.0175  1.1083 -3.3490
 3281SOL    HW216843   5.511   5.807   2.009 -0.3956  0.4593 -1.2203
 3282SOL     OW16844   2.787   0.445   6.920 -0.8717  0.1177 -0.0421
 3282SOL    HW116845   2.847   0.500   6.977 -0.4247  1.2092 -1.5250
 3282SOL    HW216846   2.719   0.505   6.876 -0.3054 -0.4633 -1.7667
 3283SOL     OW16847   4.738   4.721   1.584  0.3584  0.8720 -0.5187
 3283SOL    HW116848   4.735   4.681   1.492  0.8138  0.9368 -0.5627
 3283SOL    HW216849   4.694   4.811   1.582 -2.1915 -0.3048 -0.0615
 3284SOL     OW16850   5.574   6.568   2.565  0.1329 -0.5972 -0.2314
 3284SOL    HW116851   5.575   6.663   2.595 -1.3130 -0.5668 -0.2495
 3284SOL    HW216852   5.491   6.523   2.598  0.6973 -1.7939 -0.4096
 3285SOL     OW16853   2.388   3.541   0.434 -0.0940  0.4671 -0.4591
 3285SOL    HW116854   2.320   3.544   0.362  1.0665 -0.9659 -1.6443
 3285SOL    HW216855   2.420   3.447   0.447  1.2354  1.0216  0.4698
 3286SOL     OW16856   3.063   3.758   0.760 -0.5633 -0.0126 -0.4120
 3286SOL    HW116857   3.154   3.800   0.752 -0.8244  0.8095  0.7283
 3286SOL    HW216858   2.999   3.806   0.701 -0.0292 -1.3126 -2.0839
 3287SOL     OW16859   1.468   6.635   6.622  0.0639 -0.3132 -0.5466
 3287SOL    HW116860   1.505   6.554   6.577 -1.1801 -0.8351 -0.6362
 3287SOL    HW216861   1.426   6.695   6.553 -0.3032 -0.2870 -0.3009
 3288SOL     OW16862   5.961   1.448   7.302  0.1789  0.2551 -0.5076
 3288SOL    HW116863   5.876   1.396   7.305 -0.4551  1.2511 -1.1190
 3288SOL    HW216864   6.013   1.431   7.386 -0.6628 -0.2855 -0.0857
 3289SOL     OW16865   2.644   5.483   0.296  0.0677 -0.6329 -0.1186
 3289SOL    HW116866   2.626   5.567   0.347 -0.5918 -0.5995 -0.3899
 3289SOL    HW216867   2.742   5.464   0.295  0.2348  0.2082 -0.1689
 3290SOL     OW16868   1.801   1.764   0.349 -0.3820 -0.1103  0.7569
 3290SOL    HW116869   1.728   1.713   0.305  0.9855 -0.8374 -0.7328
 3290SOL    HW216870   1.854   1.703   0.408 -0.1234  0.0968  0.7404
 3291SOL     OW16871   0.372   4.418   6.351  0.1525  0.1632  0.0787
 3291SOL    HW116872   0.302   4.432   6.281  1.4523  0.8652 -1.1176
 3291SOL    HW216873   0.458   4.460   6.320  1.6930 -2.5319  0.5226
 3292SOL     OW16874   6.488   6.817   2.132  0.8751  0.2876 -0.1442
 3292SOL    HW116875   6.555   6.868   2.077  0.1452  0.7317 -0.6198
 3292SOL    HW216876   6.521   6.723   2.144  2.0381  0.7648  0.4212
 3293SOL     OW16877   5.338   3.853   1.541 -0.3292  0.5855 -0.1902
 3293SOL    HW116878   5.264   3.892   1.486  0.5054  0.2607 -1.5626
 3293SOL    HW216879   5.426   3.886   1.507  0.2803 -0.9639 -0.1302
 3294SOL     OW16880   7.257   0.265   2.621  0.1267  0.8540 -0.3708
 3294SOL    HW116881   7.243   0.212   2.537 -1.5002  2.3503 -1.0777
 3294SOL    HW216882   7.354   0.266   2.644  0.2492 -2.1340 -0.5216
 3295SOL     OW16883   5.041   5.205   6.967 -0.7129 -0.5641  0.0119
 3295SOL    HW116884   5.012   5.272   7.035 -0.2970  0.7432 -1.0719
 3295SOL    HW216885   5.140   5.211   6.953 -0.8803 -0.3385 -1.1936
 3296SOL     OW16886   3.167   3.531   2.143  0.4689 -0.0433 -0.5612
 3296SOL    HW116887   3.127   3.518   2.234  0.3116 -0.3599 -0.6783
 3296SOL    HW216888   3.153   3.626   2.115 -1.4039 -0.4907 -1.1792
 3297SOL     OW16889   7.118   1.198   7.177  0.0768  0.0380 -0.1973
 3297SOL    HW116890   7.087   1.188   7.272 -1.5996 -0.5968 -0.7879
 3297SOL    HW216891   7.212   1.165   7.169  0.1124 -0.2395  1.1695
 3298SOL     OW16892   3.024   2.239   5.783  0.4703 -0.5126  0.7941
 3298SOL    HW116893   3.082   2.202   5.856  0.7238 -0.8403  0.4288
 3298SOL    HW216894   3.071   2.229   5.695 -0.2428 -1.0172  0.4638
 3299SOL     OW16895   7.039   2.443   2.778 -0.2310  0.2289 -0.5503
 3299SOL    HW116896   7.057   2.542   2.781 -0.0290  0.1829 -0.3044
 3299SOL    HW216897   6.945   2.426   2.805  0.6015  0.0900  2.4069
 3300SOL     OW16898   5.241   5.953   1.924  0.1390  0.0166 -0.3789
 3300SOL    HW116899   5.164   5.917   1.975  0.1083 -0.7832 -0.9799
 3300SOL    HW216900   5.326   5.936   1.974  0.0313 -0.0764 -0.2295
 3301SOL     OW16901   0.506   3.035   4.431  0.3601  0.1290 -0.2649
 3301SOL    HW116902   0.492   2.949   4.383  0.4278  0.0993 -0.2310
 3301SOL    HW216903   0.419   3.066   4.469  0.5026 -0.3714  0.4813
 3302SOL     OW16904   5.797   5.282   2.105 -0.1046 -1.0604 -0.1142
 3302SOL    HW116905   5.756   5.367   2.138 -1.4992 -1.5251 -0.5864
 3302SOL    HW216906   5.767   5.205   2.162  0.6271 -1.3236 -0.0782
 3303SOL     OW16907   5.922   4.712   1.181  0.2926  0.2346 -0.0491
 3303SOL    HW116908   5.969   4.633   1.144 -0.1593  0.9885 -2.3174
 3303SOL    HW216909   5.954   4.795   1.134 -1.2355  1.0665  0.3445
 3304SOL     OW16910   5.732   1.315   7.324  0.5971 -0.1917 -0.0743
 3304SOL    HW116911   5.670   1.390   7.349  1.3880  1.0292 -1.6199
 3304SOL    HW216912   5.713   1.235   7.380 -0.3265  1.1508  1.5731
 3305SOL     OW16913   3.150   3.328   5.701  0.1829 -0.0227 -0.2442
 3305SOL    HW116914   3.101   3.415   5.698 -1.2525 -0.7798  0.8092
 3305SOL    HW216915   3.113   3.267   5.631  1.8467  0.5370 -1.6393
 3306SOL     OW16916   4.378   1.234   4.176  0.2135 -0.3008 -0.2154
 3306SOL    HW116917   4.443   1.256   4.248 -0.1912  0.4646 -0.0804
 3306SOL    HW216918   4.403   1.283   4.093  2.0058 -2.9079 -1.2944
 3307SOL     OW16919   2.835   5.130   1.021 -0.5365  0.2002  0.0746
 3307SOL    HW116920   2.757   5.180   0.982 -0.8763  0.5870  1.2299
 3307SOL    HW216921   2.920   5.179   0.999 -0.7819  0.7515  0.3297
 3308SOL     OW16922   7.249   0.340   0.357 -0.7469  0.1899  0.0212
 3308SOL    HW116923   7.259   0.300   0.448 -1.0101  1.7181  0.7302
 3308SOL    HW216924   7.230   0.438   0.365  0.3127  0.5584 -1.7014
 3309SOL     OW16925   4.153   6.805   0.196 -0.2040  0.0876 -0.1370
 3309SOL    HW116926   4.243   6.797   0.238  0.0775 -1.7468 -1.0163
 3309SOL    HW216927   4.143   6.896   0.155  1.2332  0.3178 -0.0100
 3310SOL     OW16928   7.298   2.607   1.811 -0.1935  0.7252 -0.1101
 3310SOL    HW116929   7.283   2.613   1.712 -0.1140  1.3525 -0.0900
 3310SOL    HW216930   7.335   2.517   1.834 -0.0562  0.6332 -0.6751
 3311SOL     OW16931   2.655   6.636   2.376 -0.1418 -0.0144 -0.7040
 3311SOL    HW116932   2.735   6.582   2.350  1.2156  1.5479  0.0880
 3311SOL    HW216933   2.614   6.599   2.459  1.3675  0.6984  0.3919
 3312SOL     OW16934   6.221   3.784   3.159  0.1292  0.2725  0.1180
 3312SOL    HW116935   6.146   3.795   3.223  0.1693  2.0395 -0.1053
 3312SOL    HW216936   6.308   3.798   3.207  0.2494 -0.2680  0.0625
 3313SOL     OW16937   0.027   1.731   2.842  0.4654  0.4480  0.8994
 3313SOL    HW116938   0.066   1.684   2.763 -4.0856  0.1434 -1.3485
 3313SOL    HW216939   0.080   1.813   2.862  2.4440 -0.1466 -1.6776
 3314SOL     OW16940   4.101   0.891   4.164  0.4526  0.3213 -0.5115
 3314SOL    HW116941   4.109   0.905   4.065  0.1072  1.2628 -0.4130
 3314SOL    HW216942   4.064   0.800   4.182 -0.5115  0.5516 -1.2884
 3315SOL     OW16943   5.533   0.773   0.039 -0.0508 -0.1532  0.3862
 3315SOL    HW116944   5.455   0.827   0.069  0.1147 -0.2395  0.9720
 3315SOL    HW216945   5.562   0.712   0.112 -1.2516 -2.2052 -0.8294
 3316SOL     OW16946   6.761   2.649   4.497 -0.2342  0.1314 -0.0579
 3316SOL    HW116947   6.836   2.583   4.500  0.1659  0.6403  1.4063
 3316SOL    HW216948   6.718   2.646   4.406 -1.2452 -3.2354  0.4716
 3317SOL     OW16949   0.197   1.969   1.808  0.1368  0.0193 -0.4618
 3317SOL    HW116950   0.131   1.951   1.880  0.0823 -1.0126 -0.7599
 3317SOL    HW216951   0.228   1.882   1.768  3.0521  0.3855  0.8983
 3318SOL     OW16952   7.117   3.044   0.062  0.0302 -0.5882 -0.8181
 3318SOL    HW116953   7.072   2.963   0.100  0.1622 -0.3712 -0.2090
 3318SOL    HW216954   7.082   3.126   0.107  2.3362 -0.5397  0.9326
 3319SOL     OW16955   1.300   2.726   7.104  0.4390  0.7159 -0.0855
 3319SOL    HW116956   1.342   2.675   7.179  1.9084  2.1773  0.1083
 3319SOL    HW216957   1.284   2.664   7.026  2.2145 -0.0319  0.1263
 3320SOL     OW16958   1.236   3.517   0.295 -0.2470 -0.5996  0.1935
 3320SOL    HW116959   1.289   3.432   0.284  0.8776  0.2119 -0.7475
 3320SOL    HW216960   1.221   3.559   0.205  0.9913  1.2756  0.8390
 3321SOL     OW16961   3.750   6.752   1.712 -0.5010  0.1017  0.4307
 3321SOL    HW116962   3.750   6.839   1.761 -0.7170 -0.4383  1.3993
 3321SOL    HW216963   3.664   6.704   1.730 -0.0642 -0.6564  0.5077
 3322SOL     OW16964   6.664   1.675   4.405  0.3869  0.0121 -0.5369
 3322SOL    HW116965   6.575   1.646   4.438  0.9197  0.2641  1.1725
 3322SOL    HW216966   6.716   1.596   4.373  1.0085 -0.6857  2.0743
 3323SOL     OW16967   0.920   7.015   0.607 -0.1492  0.3788 -0.1991
 3323SOL    HW116968   0.925   7.055   0.516  0.4122  2.2136  0.6041
 3323SOL    HW216969   1.012   7.012   0.647 -0.7667  2.6253  1.5208
 3324SOL     OW16970   4.067   3.500   1.682 -0.6663 -0.0559 -0.1415
 3324SOL    HW116971   3.987   3.459   1.725 -1.2051  0.7381 -0.3766
 3324SOL    HW216972   4.039   3.578   1.626  0.5470  1.7841  1.7320
 3325SOL     OW16973   0.880   5.341   2.884 -0.4763 -0.4368 -0.1926
 3325SOL    HW116974   0.929   5.259   2.911  0.2378  0.0826  0.0927
 3325SOL    HW216975   0.927   5.422   2.919 -1.0738  0.1073 -0.6207
 3326SOL     OW16976   2.032   7.217   6.049 -0.2264 -0.1216 -0.0166
 3326SOL    HW116977   1.965   7.269   5.996  1.2047  0.6831 -1.0302
 3326SOL    HW216978   1.985   7.173   6.126 -1.9869  0.1546 -0.9023
 3327SOL     OW16979   3.428   4.680   5.601 -0.2235  0.2944 -0.0315
 3327SOL    HW116980   3.391   4.706   5.511 -1.6920 -0.7113  0.2731
 3327SOL    HW216981   3.353   4.666   5.665  0.8628  1.9811  1.6443
 3328SOL     OW16982   4.751   0.152   6.820 -0.5139  0.0665 -0.1870
 3328SOL    HW116983   4.697   0.231   6.849 -0.2800 -0.0320  0.5352
 3328SOL    HW216984   4.836   0.148   6.873  0.1830  0.1850 -1.2753
 3329SOL     OW16985   2.205   0.763   0.430 -0.3114  0.3943  0.0812
 3329SOL    HW116986   2.301   0.787   0.444  0.0098 -0.9207  0.2052
 3329SOL    HW216987   2.168   0.721   0.513 -1.2712  1.7639  0.3543
 3330SOL     OW16988   2.916   1.509   1.040  0.1328 -0.5606  0.1838
 3330SOL    HW116989   2.998   1.459   1.011  0.1885 -0.5192  0.2682
 3330SOL    HW216990   2.862   1.451   1.101 -0.4471 -0.9785 -0.7279
 3331SOL     OW16991   2.732   7.174   7.127 -0.1478 -0.4203 -0.2959
 3331SOL    HW116992   2.776   7.113   7.193 -0.4471  0.3020  0.5724
 3331SOL    HW216993   2.799   7.239   7.091 -0.2953  0.1117  0.3727
 3332SOL     OW16994   5.761   0.830   3.889  0.1109  0.0448 -0.3741
 3332SOL    HW116995   5.801   0.896   3.952 -0.8002 -0.0813  0.3425
 3332SOL    HW216996   5.728   0.878   3.807  2.1771  0.0808 -1.2141
 3333SOL     OW16997   3.626   1.166   1.028 -0.0948 -0.0075  0.3114
 3333SOL    HW116998   3.634   1.103   0.950  0.2513  2.3535 -1.6307
 3333SOL    HW216999   3.681   1.247   1.010 -3.4152  2.5024  1.0663
 3334SOL     OW17000   5.525   4.097   3.069  0.1818 -0.4004 -0.2371
 3334SOL    HW117001   5.560   4.063   2.982 -1.6893 -2.7123 -0.1345
 3334SOL    HW217002   5.566   4.045   3.144 -0.0291 -0.0525  0.1198
 3335SOL     OW17003   6.728   4.421   4.495 -0.2828  0.0601  0.4851
 3335SOL    HW117004   6.632   4.414   4.468  0.0320  0.7556 -0.8452
 3335SOL    HW217005   6.786   4.402   4.415  0.6713  2.2693  0.6305
 3336SOL     OW17006   3.868   1.780   2.779  0.1154  0.0443 -1.1514
 3336SOL    HW117007   3.916   1.704   2.822 -0.7509  0.6412  0.9516
 3336SOL    HW217008   3.770   1.763   2.782 -0.0765  1.1769 -0.7774
 3337SOL     OW17009   2.129   5.304   0.170  0.0483 -0.4437 -0.4501
 3337SOL    HW117010   2.071   5.371   0.122 -0.9976 -0.5825  0.5955
 3337SOL    HW217011   2.225   5.322   0.149 -0.2050  1.4845 -0.0525
 3338SOL     OW17012   3.698   4.978   5.962 -1.0201  0.1791  0.1411
 3338SOL    HW117013   3.691   4.972   6.062 -2.5737 -0.3136  0.0128
 3338SOL    HW217014   3.793   4.997   5.937 -0.6176  0.3467  1.7116
 3339SOL     OW17015   2.875   5.695   2.484  0.1646 -0.5782  0.4865
 3339SOL    HW117016   2.809   5.626   2.512 -1.7730  0.9886 -0.0793
 3339SOL    HW217017   2.842   5.785   2.513  1.0842  0.4302 -1.5483
 3340SOL     OW17018   7.319   2.010   4.002 -0.2973  0.2469 -0.1344
 3340SOL    HW117019   7.221   2.024   3.987 -0.2019 -0.8650 -1.9519
 3340SOL    HW217020   7.333   1.960   4.087 -1.4431 -1.0946 -0.7036
 3341SOL     OW17021   2.956   4.231   7.236 -0.2475 -0.3050 -0.3382
 3341SOL    HW117022   2.941   4.135   7.260  1.3491 -1.5894 -4.1200
 3341SOL    HW217023   3.035   4.266   7.285 -1.0210 -0.8008  1.2992
 3342SOL     OW17024   3.565   7.099   3.213  0.1838 -0.1714  0.3157
 3342SOL    HW117025   3.662   7.102   3.187  0.6816  2.7403  2.2205
 3342SOL    HW217026   3.509   7.135   3.138  0.8600  0.7521  0.2396
 3343SOL     OW17027   4.610   4.587   2.194 -0.1256  1.0606 -0.5189
 3343SOL    HW117028   4.617   4.487   2.187 -2.3181  0.9219 -1.3480
 3343SOL    HW217029   4.639   4.616   2.285 -1.2614 -0.5503  0.3917
 3344SOL     OW17030   0.260   6.948   7.009 -0.5885 -0.5032 -0.7271
 3344SOL    HW117031   0.225   6.920   7.099  0.4979  0.2504 -0.0528
 3344SOL    HW217032   0.187   6.943   6.941 -1.7827  0.2260  0.4768
 3345SOL     OW17033   3.814   5.058   0.544  0.0819  0.2558  0.3440
 3345SOL    HW117034   3.813   4.965   0.579  0.6037 -0.3379 -1.1517
 3345SOL    HW217035   3.803   5.056   0.444  0.4433  1.7727  0.2567
 3346SOL     OW17036   3.199   0.657   0.882 -0.1266  0.1074 -0.3165
 3346SOL    HW117037   3.109   0.689   0.851 -0.3708 -1.2671 -1.0563
 3346SOL    HW217038   3.256   0.736   0.905 -1.2172  1.0221 -0.6743
 3347SOL     OW17039   1.502   4.262   2.648 -0.0824 -0.0618 -0.2686
 3347SOL    HW117040   1.485   4.204   2.568  0.5349 -0.5489 -0.0483
 3347SOL    HW217041   1.599   4.257   2.673 -0.3586 -0.2588  0.7745
 3348SOL     OW17042   0.276   0.429   5.487  0.0873 -0.3537  0.0459
 3348SOL    HW117043   0.183   0.392   5.495 -0.7381  1.8516  1.3268
 3348SOL    HW217044   0.271   0.522   5.451  1.7062  0.1444  1.0581
 3349SOL     OW17045   0.110   4.354   5.901 -0.0719 -0.2287 -0.4428
 3349SOL    HW117046   0.156   4.404   5.975  0.5214  0.2196 -1.1084
 3349SOL    HW217047   0.142   4.388   5.813 -0.9674 -0.5889 -0.9112
 3350SOL     OW17048   3.828   4.949   1.277 -0.1960 -0.6719  0.7735
 3350SOL    HW117049   3.894   4.983   1.210 -1.0149 -1.8028 -0.6453
 3350SOL    HW217050   3.853   4.857   1.305 -2.0957 -1.8103 -1.1185
 3351SOL     OW17051   1.244   5.371   6.582  0.0677  0.0637 -0.0196
 3351SOL    HW117052   1.238   5.471   6.589  2.7235  0.1216  2.9677
 3351SOL    HW217053   1.274   5.346   6.490  1.5546  2.1788 -0.1523
 3352SOL     OW17054   3.489   4.171   4.194 -0.7977  0.4362 -0.6405
 3352SOL    HW117055   3.544   4.174   4.277 -0.7533  1.0445 -0.6904
 3352SOL    HW217056   3.392   4.166   4.218 -0.6846 -2.0259 -0.5425
 3353SOL     OW17057   5.155   3.917   6.934  0.7202 -0.2146  0.5355
 3353SOL    HW117058   5.180   3.823   6.911 -0.2276  0.0050 -1.5447
 3353SOL    HW217059   5.237   3.974   6.934  1.2000 -0.8977  1.0739
 3354SOL     OW17060   6.069   7.195   6.548 -0.3743  0.6732 -0.1985
 3354SOL    HW117061   6.163   7.225   6.532 -0.1001 -1.6159 -3.3227
 3354SOL    HW217062   6.017   7.202   6.462 -3.1635  2.1489  1.5359
 3355SOL     OW17063   5.728   3.282   6.684  0.3260 -0.6377  0.1409
 3355SOL    HW117064   5.633   3.276   6.713  0.2046  0.3189 -0.0312
 3355SOL    HW217065   5.733   3.327   6.595  1.0705  0.9524  0.9723
 3356SOL     OW17066   0.448   3.994   1.293  0.1055  0.0648 -0.0137
 3356SOL    HW117067   0.487   3.915   1.246  0.0321 -1.2071  1.9997
 3356SOL    HW217068   0.399   4.052   1.227  1.5721 -0.6673 -1.7875
 3357SOL     OW17069   3.506   2.678   0.770  1.5583  0.0898  0.1940
 3357SOL    HW117070   3.511   2.600   0.707  0.4706 -0.1208  0.3621
 3357SOL    HW217071   3.521   2.762   0.719 -0.4926  0.0114 -0.5790
 3358SOL     OW17072   5.878   3.799   0.981 -0.5940 -0.2508  0.1386
 3358SOL    HW117073   5.804   3.770   0.920 -0.1001 -1.5422  0.1392
 3358SOL    HW217074   5.965   3.765   0.947 -0.1226  0.3775  0.7041
 3359SOL     OW17075   5.279   0.400   2.571 -0.5262 -0.1524 -0.0631
 3359SOL    HW117076   5.265   0.324   2.509 -1.7205  0.0558 -0.0519
 3359SOL    HW217077   5.217   0.393   2.649  0.2994  0.0971  0.6390
 3360SOL     OW17078   0.839   0.468   1.868  0.2923 -0.3334 -0.2175
 3360SOL    HW117079   0.888   0.473   1.955 -1.1711 -0.1747  0.6176
 3360SOL    HW217080   0.778   0.546   1.860  0.3839 -0.3757 -1.3745
 3361SOL     OW17081   2.130   4.504   6.363  0.0318 -0.3505  0.3031
 3361SOL    HW117082   2.155   4.407   6.368  1.9739  0.1340  0.4135
 3361SOL    HW217083   2.091   4.533   6.450 -3.1466 -1.6816 -0.5921
 3362SOL     OW17084   3.524   3.325   2.370 -0.2560  0.0202  0.3338
 3362SOL    HW117085   3.458   3.366   2.434 -2.1028 -1.8193 -0.3357
 3362SOL    HW217086   3.499   3.348   2.276 -0.0449 -0.8019  0.0674
 3363SOL     OW17087   6.354   5.268   4.302  0.0189 -0.2198  0.4640
 3363SOL    HW117088   6.402   5.293   4.386  1.5655  1.5022 -0.9038
 3363SOL    HW217089   6.378   5.174   4.277 -0.1524 -0.6066  1.7397
 3364SOL     OW17090   4.373   7.001   4.312  0.0593 -0.6601 -0.7739
 3364SOL    HW117091   4.319   7.084   4.329  2.1352  0.3462  1.3276
 3364SOL    HW217092   4.312   6.926   4.287 -2.0545  1.0252 -0.8582
 3365SOL     OW17093   5.720   6.744   4.363 -0.1141 -0.0471  0.0865
 3365SOL    HW117094   5.633   6.762   4.317  0.4542 -1.1437 -1.4377
 3365SOL    HW217095   5.758   6.658   4.330  1.4473  0.3145  0.9083
 3366SOL     OW17096   1.848   4.397   2.243 -0.5843 -0.0184 -0.1194
 3366SOL    HW117097   1.834   4.302   2.273  0.3166  0.1046  0.7155
 3366SOL    HW217098   1.794   4.414   2.161  1.5014 -2.1228 -1.9883
 3367SOL     OW17099   3.477   6.201   2.430  0.3213  0.2488 -0.0608
 3367SOL    HW117100   3.500   6.184   2.525 -2.0687 -0.5724  0.3987
 3367SOL    HW217101   3.462   6.114   2.382  0.7161  0.6734 -0.9768
 3368SOL     OW17102   2.830   2.288   4.455 -0.0541 -0.3640 -0.0524
 3368SOL    HW117103   2.768   2.332   4.390 -0.4678  2.2201  2.0049
 3368SOL    HW217104   2.781   2.217   4.505 -0.3880 -0.6644 -0.7864
 3369SOL     OW17105   1.171   2.852   7.322 -0.5729 -0.3939 -0.2762
 3369SOL    HW117106   1.205   2.775   7.268 -1.1952 -0.0267 -1.2255
 3369SOL    HW217107   1.155   2.930   7.261  1.6342  1.0279  0.9192
 3370SOL     OW17108   4.416   1.491   6.036 -0.8475 -0.3379  0.2623
 3370SOL    HW117109   4.496   1.435   6.014 -1.3644 -1.3181  0.8376
 3370SOL    HW217110   4.442   1.558   6.106 -0.6176 -0.9198  0.7498
 3371SOL     OW17111   2.753   6.352   5.390 -0.0788  0.3369 -0.2842
 3371SOL    HW117112   2.662   6.339   5.351  0.3940 -0.3489 -1.1701
 3371SOL    HW217113   2.744   6.391   5.481 -1.2093  1.5352 -0.8926
 3372SOL     OW17114   5.577   3.516   6.431  0.1581 -0.2403  0.4865
 3372SOL    HW117115   5.664   3.490   6.388 -0.2104  0.3117 -0.6016
 3372SOL    HW217116   5.508   3.447   6.411  0.6532 -1.3494  2.4346
 3373SOL     OW17117   6.562   6.481   5.630 -0.0502  0.2724  0.0565
 3373SOL    HW117118   6.523   6.542   5.700 -0.6701  1.2918 -1.1516
 3373SOL    HW217119   6.581   6.533   5.547 -1.3893 -1.3301 -1.2981
 3374SOL     OW17120   1.484   2.945   4.949 -0.0243 -0.2331  0.0735
 3374SOL    HW117121   1.476   3.012   4.875  1.9451  2.1893  1.9464
 3374SOL    HW217122   1.505   2.855   4.911 -0.9903  0.5642 -2.4161
 3375SOL     OW17123   3.524   4.053   0.719  0.0573  0.0766  0.1014
 3375SOL    HW117124   3.491   4.147   0.718  0.2534  0.1385 -0.8722
 3375SOL    HW217125   3.601   4.045   0.783  0.3433  0.6739 -0.1652
 3376SOL     OW17126   6.902   1.415   1.536  0.2143  1.0434 -0.6916
 3376SOL    HW117127   7.000   1.408   1.551  0.1942  0.7129 -0.7018
 3376SOL    HW217128   6.861   1.474   1.605  0.3448  0.7502 -0.3604
 3377SOL     OW17129   3.995   6.160   3.197 -0.0548 -0.0458  0.2212
 3377SOL    HW117130   3.979   6.088   3.265 -0.5106 -0.9098 -0.7789
 3377SOL    HW217131   3.986   6.121   3.105  0.7357  1.0660 -0.3362
 3378SOL     OW17132   5.048   0.328   6.633  0.5742 -0.2137  0.3947
 3378SOL    HW117133   5.131   0.348   6.581  0.2444  0.6341  0.1829
 3378SOL    HW217134   5.059   0.359   6.727  1.0765 -1.5185  0.7789
 3379SOL     OW17135   5.612   0.721   6.972 -0.0215 -0.0435  0.4642
 3379SOL    HW117136   5.534   0.694   7.029 -0.5050 -0.7788 -0.5201
 3379SOL    HW217137   5.603   0.817   6.947 -0.3630 -0.0007  0.7396
 3380SOL     OW17138   6.623   6.249   2.178 -0.3239 -0.1023  0.3690
 3380SOL    HW117139   6.688   6.182   2.143 -0.7637  0.0703 -0.8154
 3380SOL    HW217140   6.650   6.277   2.270  2.4223  1.4371 -0.8374
 3381SOL     OW17141   5.842   6.892   2.979 -0.4554  0.5241 -0.0763
 3381SOL    HW117142   5.907   6.967   2.995  1.7165 -1.4042  0.4720
 3381SOL    HW217143   5.887   6.822   2.923 -0.8644 -2.4379  3.1629
 3382SOL     OW17144   0.002   6.593   2.898  0.2951  0.4364 -0.1034
 3382SOL    HW117145   0.044   6.669   2.947 -1.7526  1.4281  0.1287
 3382SOL    HW217146   0.037   6.507   2.936 -0.6273  1.1840  2.5617
 3383SOL     OW17147   0.396   3.339   4.279  0.2248  0.0762  0.1353
 3383SOL    HW117148   0.359   3.398   4.351 -0.8168 -0.2336 -0.1335
 3383SOL    HW217149   0.488   3.308   4.304  0.0252  0.3020  1.1405
 3384SOL     OW17150   5.075   2.575   3.617  0.1349 -0.2034  0.6566
 3384SOL    HW117151   5.141   2.649   3.615 -0.8854  0.9550  4.8602
 3384SOL    HW217152   5.107   2.503   3.679 -0.2522 -1.9749 -1.1336
 3385SOL     OW17153   6.752   5.804   0.715  0.0500  0.0545  0.3214
 3385SOL    HW117154   6.726   5.775   0.807 -1.3225 -1.8170 -0.6292
 3385SOL    HW217155   6.681   5.778   0.650  1.4094  0.5602 -1.4234
 3386SOL     OW17156   5.592   0.236   1.374 -0.1252 -0.2129  0.0442
 3386SOL    HW117157   5.527   0.220   1.449  0.7305 -0.4038  0.7491
 3386SOL    HW217158   5.541   0.264   1.293 -0.9195  1.9137  1.2222
 3387SOL     OW17159   0.569   4.582   6.293  0.4704  0.3286 -0.3889
 3387SOL    HW117160   0.592   4.614   6.201 -0.4835 -0.0544 -0.7671
 3387SOL    HW217161   0.589   4.654   6.359  1.6113  0.4325 -0.8372
 3388SOL     OW17162   3.794   1.050   2.475 -0.0533 -0.2911  0.2794
 3388SOL    HW117163   3.843   1.133   2.448  2.6160 -1.7411  0.5004
 3388SOL    HW217164   3.830   1.017   2.562 -3.3207  0.0619  1.8475
 3389SOL     OW17165   5.603   3.068   1.165 -0.3204 -0.6045 -0.3893
 3389SOL    HW117166   5.531   3.074   1.234  1.0018 -0.3928  1.0111
 3389SOL    HW217167   5.664   2.991   1.187  1.7701  1.2052  0.3298
 3390SOL     OW17168   6.447   7.073   2.215  0.2654 -0.0266  0.4601
 3390SOL    HW117169   6.444   6.973   2.217 -0.5870  0.0044  3.8660
 3390SOL    HW217170   6.526   7.103   2.161  0.4832 -2.5005 -0.6807
 3391SOL     OW17171   5.915   1.236   0.524  0.3729  0.2822  0.1390
 3391SOL    HW117172   5.903   1.139   0.548  0.4520  0.4919  1.0285
 3391SOL    HW217173   6.013   1.258   0.524  0.4647 -0.0567 -1.7350
 3392SOL     OW17174   7.260   5.755   2.578  0.4863  0.1986  0.3883
 3392SOL    HW117175   7.245   5.801   2.491 -1.5871  0.2060  0.7355
 3392SOL    HW217176   7.253   5.822   2.652 -2.4162 -0.6113  0.8843
 3393SOL     OW17177   3.310   2.005   6.649  0.0093 -0.4273  0.1284
 3393SOL    HW117178   3.238   1.994   6.717 -1.1082 -1.5090 -1.2024
 3393SOL    HW217179   3.283   1.959   6.564  1.7419  0.1854 -0.7752
 3394SOL     OW17180   0.686   4.904   1.590 -0.1636  0.0567 -0.0531
 3394SOL    HW117181   0.593   4.936   1.577 -0.1521  0.4149  0.7577
 3394SOL    HW217182   0.730   4.892   1.500 -0.9203  0.0641 -0.4268
 3395SOL     OW17183   4.930   1.282   5.403 -0.0196  0.3218 -0.1020
 3395SOL    HW117184   4.883   1.357   5.356  0.3449  1.4273  1.2637
 3395SOL    HW217185   5.021   1.270   5.362 -0.0703  0.6459 -0.3146
 3396SOL     OW17186   1.327   3.838   0.984  0.2716  0.3292 -0.1602
 3396SOL    HW117187   1.290   3.926   0.954  1.0653  0.8464  0.3656
 3396SOL    HW217188   1.426   3.836   0.969  0.3038 -0.3630  0.1106
 3397SOL     OW17189   1.638   3.643   7.088  0.3002  0.1935 -0.8151
 3397SOL    HW117190   1.696   3.646   7.170  1.3096  0.0196 -1.5049
 3397SOL    HW217191   1.575   3.565   7.095 -1.0780  1.4149  0.7325
 3398SOL     OW17192   2.524   1.584   3.658  0.1031  0.6927  0.3543
 3398SOL    HW117193   2.606   1.640   3.649 -0.6709  1.4499 -2.6576
 3398SOL    HW217194   2.444   1.644   3.663 -0.5634 -0.0784 -0.8005
 3399SOL     OW17195   1.392   5.063   3.581  0.6887 -0.1709  0.1008
 3399SOL    HW117196   1.378   5.061   3.680  0.2849  0.7772  0.0657
 3399SOL    HW217197   1.487   5.039   3.560  0.6215 -0.9654  0.6787
 3400SOL     OW17198   4.219   5.266   3.669 -0.1656  0.6891 -0.2561
 3400SOL    HW117199   4.290   5.223   3.614  0.0590  0.6739  0.0471
 3400SOL    HW217200   4.151   5.198   3.696  0.8832  0.2395  1.3447
 3401SOL     OW17201   4.258   5.495   3.531 -0.0939  0.2358  0.0635
 3401SOL    HW117202   4.209   5.500   3.444  0.9266 -0.3596 -0.5579
 3401SOL    HW217203   4.217   5.424   3.588 -0.6649  0.5187  0.0152
 3402SOL     OW17204   0.351   4.832   1.748 -0.0585  0.3817 -0.0299
 3402SOL    HW117205   0.439   4.835   1.795 -1.7780  0.5597  3.3572
 3402SOL    HW217206   0.324   4.737   1.734  0.5088  0.3269 -0.7790
 3403SOL     OW17207   7.017   3.636   6.786  0.1027  0.4167  0.0700
 3403SOL    HW117208   6.919   3.627   6.770 -0.1789  0.7989  1.5313
 3403SOL    HW217209   7.058   3.546   6.797  0.2221  0.1556 -2.1456
 3404SOL     OW17210   5.064   4.914   1.293 -0.0555 -0.1854 -0.4166
 3404SOL    HW117211   5.163   4.925   1.286  0.0810 -1.7970 -1.4600
 3404SOL    HW217212   5.039   4.892   1.387  0.4238  1.4879  0.1126
 3405SOL     OW17213   1.339   3.501   6.251  0.5216 -0.1882  0.0952
 3405SOL    HW117214   1.428   3.463   6.223 -0.3141 -0.3122 -2.5566
 3405SOL    HW217215   1.353   3.579   6.311  2.5085  1.0575 -1.9156
 3406SOL     OW17216   5.787   5.996   4.729  0.3880 -0.0680  0.2341
 3406SOL    HW117217   5.703   5.965   4.686 -0.1238  1.3587  0.1955
 3406SOL    HW217218   5.850   5.918   4.739 -0.7188 -1.0307 -0.1962
 3407SOL     OW17219   3.766   2.708   2.055 -0.7300 -0.0488  0.0777
 3407SOL    HW117220   3.675   2.712   2.096 -0.0044 -1.0433  1.8414
 3407SOL    HW217221   3.791   2.613   2.037 -0.2269  0.2448 -0.8656
 3408SOL     OW17222   5.320   3.260   7.049  0.0419  0.2475  0.2788
 3408SOL    HW117223   5.234   3.213   7.027 -0.8376  2.0776 -0.3085
 3408SOL    HW217224   5.318   3.289   7.144  0.3707 -0.4617  0.5016
 3409SOL     OW17225   3.655   6.502   7.133 -0.3106 -0.2042 -0.0909
 3409SOL    HW117226   3.654   6.566   7.209 -0.7408 -1.0660  0.6294
 3409SOL    HW217227   3.683   6.550   7.049 -3.6113  1.6400 -0.1989
 3410SOL     OW17228   1.518   4.597   3.300 -0.0908  0.0755 -0.3662
 3410SOL    HW117229   1.585   4.531   3.266  0.4843  0.7320 -0.5066
 3410SOL    HW217230   1.427   4.571   3.267  0.1713 -0.4864 -0.6562
 3411SOL     OW17231   0.569   3.747   0.906 -0.2043  0.3549  0.8413
 3411SOL    HW117232   0.644   3.703   0.856 -1.0121 -0.3368  0.2254
 3411SOL    HW217233   0.531   3.821   0.851 -0.1575  0.5293  1.0413
 3412SOL     OW17234   1.567   4.695   0.247  0.2630 -0.5785 -0.5345
 3412SOL    HW117235   1.644   4.698   0.312 -0.3683 -1.2999  0.2593
 3412SOL    HW217236   1.589   4.632   0.173  0.0608 -1.5089  0.1891
 3413SOL     OW17237   2.609   0.835   1.286 -0.0248  0.0257 -0.0732
 3413SOL    HW117238   2.666   0.820   1.367  0.0761  1.6645  0.1664
 3413SOL    HW217239   2.658   0.803   1.204 -0.7827 -3.1899  0.6366
 3414SOL     OW17240   3.946   2.436   7.096 -0.1938 -0.1442 -0.9070
 3414SOL    HW117241   3.925   2.441   7.193  2.8545  1.3008 -0.2576
 3414SOL    HW217242   3.989   2.348   7.076  1.8762  0.6858 -0.3064
 3415SOL     OW17243   3.207   0.773   2.356 -0.1641 -0.0255 -0.2589
 3415SOL    HW117244   3.213   0.746   2.260  1.3658 -1.8118  0.2979
 3415SOL    HW217245   3.130   0.726   2.400  1.0802 -1.7161  0.1436
 3416SOL     OW17246   0.623   5.659   1.339 -0.4165  0.3003  0.0094
 3416SOL    HW117247   0.552   5.634   1.273  2.2432 -3.7800 -1.4961
 3416SOL    HW217248   0.703   5.692   1.289  0.3278  0.6728  1.4484
 3417SOL     OW17249   0.131   1.896   5.393 -0.1002 -0.3505  0.1637
 3417SOL    HW117250   0.130   1.797   5.378  0.0824 -0.2136 -0.8205
 3417SOL    HW217251   0.214   1.921   5.443 -0.2836 -0.7246  0.6606
 3418SOL     OW17252   1.219   2.059   3.495  0.0566  0.3121  0.2398
 3418SOL    HW117253   1.312   2.087   3.520  0.0014  0.3174  0.4396
 3418SOL    HW217254   1.217   1.961   3.478 -0.1536  0.1120  1.4030
 3419SOL     OW17255   3.099   2.994   7.314 -0.3717  0.0098  0.1759
 3419SOL    HW117256   3.135   2.911   7.271 -0.7382  0.7890 -1.7009
 3419SOL    HW217257   3.066   3.056   7.243 -0.8472  1.4207  1.6055
 3420SOL     OW17258   5.935   4.957   2.428 -0.4679  0.4436  0.2599
 3420SOL    HW117259   6.027   4.982   2.398 -0.7164 -1.3737 -2.1970
 3420SOL    HW217260   5.940   4.890   2.502  0.1891 -0.0997 -0.2740
 3421SOL     OW17261   1.458   5.971   5.301 -0.0877 -0.5026  0.2374
 3421SOL    HW117262   1.531   5.926   5.249  0.0791 -1.3071  1.1395
 3421SOL    HW217263   1.378   5.984   5.242 -1.0356 -4.2534  0.5623
 3422SOL     OW17264   2.228   3.740   0.629 -0.1517  0.7121  0.1223
 3422SOL    HW117265   2.246   3.800   0.551  0.8019 -0.1806 -0.3527
 3422SOL    HW217266   2.279   3.655   0.618  1.2002  1.1770  2.4600
 3423SOL     OW17267   0.919   1.983   1.283  0.1487  0.3613 -0.1953
 3423SOL    HW117268   0.960   2.067   1.246  3.3273 -0.9112  0.3596
 3423SOL    HW217269   0.855   1.945   1.216  0.1245  2.1701 -1.2290
 3424SOL     OW17270   1.828   5.639   4.254  0.4396  0.2804  0.3244
 3424SOL    HW117271   1.925   5.648   4.276 -0.1539  0.6384  2.8379
 3424SOL    HW217272   1.795   5.549   4.283  0.4322 -0.6038 -2.2533
 3425SOL     OW17273   0.148   3.172   0.800  0.0789  0.1220 -0.0231
 3425SOL    HW117274   0.212   3.095   0.793  2.1137  1.7627  0.0319
 3425SOL    HW217275   0.067   3.154   0.744  0.1247 -2.4247  0.6834
 3426SOL     OW17276   2.876   2.669   0.439  0.5057 -0.3376 -0.4337
 3426SOL    HW117277   2.975   2.675   0.446  0.4497 -0.5961  0.7108
 3426SOL    HW217278   2.850   2.643   0.346  1.5681 -2.0293 -0.2605
 3427SOL     OW17279   5.808   2.492   0.482 -0.1407 -0.1797 -0.8711
 3427SOL    HW117280   5.834   2.458   0.391  2.1281  2.4961 -1.3219
 3427SOL    HW217281   5.776   2.587   0.474 -0.1257  0.0092  1.0910
 3428SOL     OW17282   4.196   2.769   7.277 -0.2968 -0.1357 -0.7596
 3428SOL    HW117283   4.108   2.780   7.230 -0.6953  4.0378  0.7645
 3428SOL    HW217284   4.182   2.725   7.365 -0.7188 -0.3829 -0.9517
 3429SOL     OW17285   5.371   4.547   0.589  0.9607 -0.3007 -0.4951
 3429SOL    HW117286   5.329   4.634   0.615 -0.3227 -1.2750  0.7627
 3429SOL    HW217287   5.299   4.482   0.565  1.9720 -0.4855 -3.2746
 3430SOL     OW17288   0.646   3.590   1.657 -0.6219 -0.0178 -0.5811
 3430SOL    HW117289   0.658   3.670   1.598  0.5485 -0.3538 -0.8244
 3430SOL    HW217290   0.682   3.611   1.749  0.6417 -0.5815 -0.9287
 3431SOL     OW17291   1.909   0.842   3.300 -0.1928  0.2067 -0.4930
 3431SOL    HW117292   1.911   0.845   3.400 -1.2940 -2.3615 -0.3475
 3431SOL    HW217293   1.999   0.864   3.264  0.1841  1.3094  1.0441
 3432SOL     OW17294   4.968   3.795   1.235 -0.4798  0.2645  0.3485
 3432SOL    HW117295   4.966   3.759   1.141  1.0033  1.1226 -0.0350
 3432SOL    HW217296   4.875   3.798   1.271 -1.0412 -0.3853 -0.9867
 3433SOL     OW17297   1.221   2.602   5.629 -0.3597 -0.4085  0.0389
 3433SOL    HW117298   1.126   2.613   5.658  0.0563  1.3493  0.7938
 3433SOL    HW217299   1.240   2.664   5.553  0.1161 -0.9781 -0.3188
 3434SOL     OW17300   3.402   4.316   0.267 -0.6108 -0.1964 -0.1239
 3434SOL    HW117301   3.331   4.250   0.291 -1.3971  0.0723 -1.6401
 3434SOL    HW217302   3.452   4.284   0.186  0.8089 -0.2384  0.7516
 3435SOL     OW17303   3.815   6.563   3.239 -0.2246 -0.2328  0.4540
 3435SOL    HW117304   3.769   6.544   3.153  0.6876  0.6158 -0.2229
 3435SOL    HW217305   3.813   6.661   3.258  0.5982 -0.2800  0.8210
 3436SOL     OW17306   3.450   5.073   2.999 -0.2367 -0.0752 -0.4582
 3436SOL    HW117307   3.413   5.165   2.989 -0.7021 -0.1126  0.7944
 3436SOL    HW217308   3.420   5.016   2.922 -1.9740  0.1603  0.0153
 3437SOL     OW17309   1.322   5.309   0.321 -0.1911  0.3107 -0.1025
 3437SOL    HW117310   1.310   5.235   0.388  0.1313 -0.1502 -0.5491
 3437SOL    HW217311   1.362   5.389   0.366 -0.3263  0.1338  0.3343
 3438SOL     OW17312   3.734   1.730   4.909 -0.1425 -0.1432 -0.6860
 3438SOL    HW117313   3.667   1.782   4.856  0.4078  0.7147 -0.5355
 3438SOL    HW217314   3.736   1.635   4.876  0.1344  0.3597 -2.1443
 3439SOL     OW17315   2.694   3.992   3.105 -0.3105 -0.5832  0.3740
 3439SOL    HW117316   2.706   3.939   3.021  0.7874 -0.3828  0.3942
 3439SOL    HW217317   2.724   4.086   3.090 -1.2740 -0.2252  0.6376
 3440SOL     OW17318   2.242   3.338   2.491  0.0966 -0.4567  0.1128
 3440SOL    HW117319   2.144   3.348   2.472 -0.2617 -0.8669  1.7032
 3440SOL    HW217320   2.272   3.411   2.553  0.6043 -0.8536  0.3418
 3441SOL     OW17321   3.201   5.978   7.018  0.0948  0.3075 -0.1073
 3441SOL    HW117322   3.127   6.007   6.957  0.4435  0.6957 -0.3545
 3441SOL    HW217323   3.204   6.039   7.098  0.0672  0.2173 -0.0382
 3442SOL     OW17324   3.241   4.210   2.315 -0.3061 -0.8520 -0.6627
 3442SOL    HW117325   3.297   4.201   2.232  1.9235 -1.7423  0.8759
 3442SOL    HW217326   3.266   4.295   2.362 -1.5276 -0.3754 -0.8652
 3443SOL     OW17327   0.968   5.968   3.816 -0.0086  0.1759 -0.3748
 3443SOL    HW117328   1.000   5.887   3.866  0.2725  1.0194  0.8422
 3443SOL    HW217329   0.940   6.038   3.882 -1.1751  0.7114 -1.4235
 3444SOL     OW17330   3.534   2.345   1.384  0.1398 -0.1318 -0.2699
 3444SOL    HW117331   3.449   2.372   1.429 -0.4773 -1.0291 -0.8642
 3444SOL    HW217332   3.597   2.423   1.381 -0.4104  0.3551  0.7538
 3445SOL     OW17333   3.389   1.298   0.975  0.0776  0.6792  0.0266
 3445SOL    HW117334   3.470   1.248   1.006 -0.9381 -0.0829  1.4860
 3445SOL    HW217335   3.414   1.393   0.957  1.2097  0.5557  0.8953
 3446SOL     OW17336   4.799   2.843   6.151 -0.1460  0.3850 -0.7140
 3446SOL    HW117337   4.843   2.757   6.179  0.0155  0.8922  0.6425
 3446SOL    HW217338   4.745   2.827   6.069 -0.2937 -1.0773 -0.3563
 3447SOL     OW17339   2.553   2.007   0.972 -0.0688  0.0986  0.5404
 3447SOL    HW117340   2.537   2.064   0.891  0.0810 -0.4966  0.0824
 3447SOL    HW217341   2.489   1.930   0.970  0.7246 -0.5587  0.3743
 3448SOL     OW17342   2.614   6.246   2.062 -0.3866 -0.0303 -0.2745
 3448SOL    HW117343   2.551   6.199   2.123 -0.0064  0.4241  0.4788
 3448SOL    HW217344   2.568   6.324   2.019 -0.0138  0.9787  1.1446
 3449SOL     OW17345   6.318   3.578   5.398  0.2259 -0.6310  0.3153
 3449SOL    HW117346   6.230   3.608   5.362 -0.0133 -0.7016  0.8450
 3449SOL    HW217347   6.383   3.655   5.397 -0.2996 -0.1697  1.3970
 3450SOL     OW17348   5.672   3.035   4.935 -0.5838  0.1359  0.0069
 3450SOL    HW117349   5.594   2.992   4.890 -1.4455  1.8467 -0.1743
 3450SOL    HW217350   5.725   2.966   4.983 -1.1251 -1.3294 -1.4661
 3451SOL     OW17351   3.995   4.632   4.453  0.2533 -0.2609  0.3570
 3451SOL    HW117352   4.045   4.549   4.428 -0.9581 -0.6552 -0.8536
 3451SOL    HW217353   4.044   4.712   4.419  0.2235 -0.6219 -0.5496
 3452SOL     OW17354   3.270   7.021   4.208  0.0956  0.0137 -0.0614
 3452SOL    HW117355   3.231   6.943   4.160  0.4231 -1.0293  1.3462
 3452SOL    HW217356   3.202   7.095   4.212 -0.3006 -0.2758 -1.1611
 3453SOL     OW17357   3.574   4.476   3.130  0.4230  0.0798 -0.2530
 3453SOL    HW117358   3.527   4.484   3.218 -1.4993  0.0295 -1.2568
 3453SOL    HW217359   3.585   4.380   3.106  0.7985  0.0962 -0.1571
 3454SOL     OW17360   1.431   4.056   3.501 -0.1294  0.9676  0.1340
 3454SOL    HW117361   1.524   4.071   3.536  0.2017 -0.0984 -0.2376
 3454SOL    HW217362   1.370   4.127   3.534 -0.0276 -0.4616  3.5846
 3455SOL     OW17363   3.941   3.382   3.428 -0.3611 -0.5579 -0.0704
 3455SOL    HW117364   3.930   3.283   3.428 -1.0699 -0.4885  1.5772
 3455SOL    HW217365   3.992   3.410   3.346 -1.5909 -2.0978 -1.3752
 3456SOL     OW17366   5.171   1.353   3.815 -0.6887  0.2248  0.5823
 3456SOL    HW117367   5.165   1.419   3.890 -0.0659 -1.2709  1.9821
 3456SOL    HW217368   5.262   1.359   3.773 -1.4483  1.9174 -0.8970
 3457SOL     OW17369   2.897   6.386   0.763 -0.6014 -0.3145 -0.3484
 3457SOL    HW117370   2.916   6.420   0.854 -1.2842 -1.3490  0.1898
 3457SOL    HW217371   2.979   6.393   0.706 -0.9425  2.9711 -0.5180
 3458SOL     OW17372   2.176   3.716   6.814  0.1187  0.1274  0.4144
 3458SOL    HW117373   2.228   3.754   6.889  1.1189 -2.1249  0.9233
 3458SOL    HW217374   2.118   3.641   6.848 -1.2066  0.6489 -0.6493
 3459SOL     OW17375   4.944   2.652   2.412  0.4089 -0.1177 -0.0869
 3459SOL    HW117376   4.927   2.747   2.439  0.1900 -0.8191  2.3259
 3459SOL    HW217377   4.996   2.605   2.483  1.2586 -1.5878 -1.6399
 3460SOL     OW17378   5.137   0.679   1.927 -0.5431 -0.4520  0.3881
 3460SOL    HW117379   5.219   0.692   1.984  1.1188 -2.9748 -1.3686
 3460SOL    HW217380   5.151   0.720   1.838 -0.2307 -2.9261 -0.7431
 3461SOL     OW17381   2.300   0.028   0.546  0.6779 -0.3048 -0.3335
 3461SOL    HW117382   2.222   0.032   0.608  1.9714 -1.3799  1.3787
 3461SOL    HW217383   2.267   0.003   0.454 -0.9396 -1.2808  0.4761
 3462SOL     OW17384   3.208   1.575   1.721 -0.0804  0.5588  0.5681
 3462SOL    HW117385   3.148   1.550   1.797 -0.4893  1.6406  0.6113
 3462SOL    HW217386   3.303   1.565   1.749 -0.2346 -0.6504  0.6737
 3463SOL     OW17387   4.003   3.279   0.758 -0.1626  0.2945  0.7410
 3463SOL    HW117388   3.918   3.315   0.796 -0.3049  1.8477 -0.9513
 3463SOL    HW217389   3.984   3.232   0.671  0.8197  1.6941 -0.2630
 3464SOL     OW17390   2.238   3.248   6.622 -0.1521 -0.4893  0.3255
 3464SOL    HW117391   2.282   3.333   6.650  0.2781 -0.4057 -0.5748
 3464SOL    HW217392   2.139   3.254   6.636 -0.2321  0.5028 -0.5740
 3465SOL     OW17393   3.970   4.883   5.333 -0.2423  0.7655 -0.3659
 3465SOL    HW117394   3.896   4.887   5.401  0.1398 -0.2635  0.1159
 3465SOL    HW217395   3.931   4.864   5.243 -0.5025 -0.5415  0.0118
 3466SOL     OW17396   3.601   0.820   2.715  0.5247 -0.2789  0.2477
 3466SOL    HW117397   3.547   0.810   2.631  0.1493 -1.9582  0.6792
 3466SOL    HW217398   3.593   0.738   2.770  2.2498  0.0838  1.0844
 3467SOL     OW17399   6.574   2.563   5.232 -0.2752  0.2177  0.3377
 3467SOL    HW117400   6.519   2.606   5.160  2.0997  0.8834 -1.1475
 3467SOL    HW217401   6.518   2.494   5.279 -2.1568  0.3496 -1.5865
 3468SOL     OW17402   7.274   6.208   0.408 -0.2303 -0.0223  0.1132
 3468SOL    HW117403   7.215   6.282   0.376 -2.1504 -2.1303 -1.3210
 3468SOL    HW217404   7.243   6.176   0.497  1.2672  1.5840  1.2481
 3469SOL     OW17405   4.223   1.534   2.192 -0.3305  0.0643 -0.4366
 3469SOL    HW117406   4.254   1.551   2.286  0.0793  1.1501 -0.7586
 3469SOL    HW217407   4.302   1.513   2.134 -0.6942 -1.6911 -0.3255
 3470SOL     OW17408   3.950   2.209   1.513 -0.0576  0.6614  0.0209
 3470SOL    HW117409   4.025   2.245   1.457 -1.1304  1.5471 -0.8970
 3470SOL    HW217410   3.983   2.134   1.569  1.5644  1.1803 -0.2069
 3471SOL     OW17411   1.419   7.245   6.823 -0.1839  0.1894 -0.0446
 3471SOL    HW117412   1.453   7.325   6.773 -0.4965 -1.1966 -2.5607
 3471SOL    HW217413   1.427   7.164   6.765 -2.3031 -1.1783  1.5205
 3472SOL     OW17414   7.052   5.709   6.567  0.2741 -0.0861  0.0143
 3472SOL    HW117415   7.057   5.798   6.613 -0.5114 -0.8384  1.6232
 3472SOL    HW217416   7.141   5.663   6.574  0.4938  0.2974 -0.2405
 3473SOL     OW17417   1.454   0.765   1.873 -0.7765 -0.1976 -0.6036
 3473SOL    HW117418   1.358   0.764   1.902 -0.6499 -0.2290 -0.1826
 3473SOL    HW217419   1.483   0.673   1.850 -1.4690  0.1064 -2.8047
 3474SOL     OW17420   0.909   5.421   0.673 -0.5646  0.4109 -0.4095
 3474SOL    HW117421   0.904   5.486   0.748  0.8955 -0.7414  0.7041
 3474SOL    HW217422   0.933   5.331   0.708 -1.9300 -0.6061 -2.0123
 3475SOL     OW17423   4.225   0.116   1.696 -0.2833 -1.0538  0.1389
 3475SOL    HW117424   4.295   0.062   1.743  0.2028  0.4230  1.1308
 3475SOL    HW217425   4.145   0.124   1.755  0.8012  1.8618  1.3016
 3476SOL     OW17426   7.033   0.861   2.876 -0.3105 -0.3174  0.2456
 3476SOL    HW117427   7.085   0.895   2.954 -0.1064 -0.4260  0.1584
 3476SOL    HW217428   7.060   0.767   2.856 -2.2819 -1.2470  1.7327
 3477SOL     OW17429   2.536   6.754   6.559  0.3224 -0.3957  0.1957
 3477SOL    HW117430   2.624   6.749   6.512  1.0692  1.4686  1.3390
 3477SOL    HW217431   2.496   6.845   6.547 -1.0701 -0.9590  0.3674
 3478SOL     OW17432   6.499   1.304   0.466  0.4742  0.2383 -0.0154
 3478SOL    HW117433   6.436   1.333   0.539 -1.5172  2.1560 -2.3680
 3478SOL    HW217434   6.548   1.384   0.432 -0.2148 -0.2537 -2.2170
 3479SOL     OW17435   5.580   3.571   7.103  0.8104  0.1594 -0.2928
 3479SOL    HW117436   5.581   3.609   7.011 -0.7775  1.7725  0.3267
 3479SOL    HW217437   5.642   3.624   7.161  1.1413 -0.3068 -0.2196
 3480SOL     OW17438   4.861   5.019   3.354  0.2953 -0.6376 -0.4527
 3480SOL    HW117439   4.823   4.970   3.275  0.2880  0.7892 -1.3623
 3480SOL    HW217440   4.788   5.042   3.418  0.4733 -2.9127  0.6279
 3481SOL     OW17441   4.162   2.233   5.097  0.3123  0.2128  0.5699
 3481SOL    HW117442   4.236   2.288   5.058 -0.1951 -0.1742 -0.9633
 3481SOL    HW217443   4.146   2.261   5.192  0.8206  1.9472  0.1616
 3482SOL     OW17444   4.576   7.105   2.903  0.6506  0.2734 -0.4970
 3482SOL    HW117445   4.629   7.152   2.833  0.8509 -1.0583 -1.2654
 3482SOL    HW217446   4.580   7.006   2.886  0.0009  0.0021  0.9022
 3483SOL     OW17447   2.430   2.103   6.578 -0.1993  0.0385 -0.0923
 3483SOL    HW117448   2.527   2.115   6.554  0.1272 -0.4511  0.9425
 3483SOL    HW217449   2.421   2.099   6.678 -1.2549 -0.2689 -0.1961
 3484SOL     OW17450   4.835   6.938   4.218 -0.1666 -0.1472 -0.3545
 3484SOL    HW117451   4.899   6.968   4.289 -0.7106  0.0714  0.0438
 3484SOL    HW217452   4.879   6.868   4.162 -0.1586 -1.2394  0.9718
 3485SOL     OW17453   1.279   7.145   7.216 -0.1414 -0.4471 -0.0260
 3485SOL    HW117454   1.230   7.173   7.133  0.7410 -0.2320 -0.4829
 3485SOL    HW217455   1.251   7.053   7.241 -0.4466 -0.5021 -0.5533
 3486SOL     OW17456   7.181   2.344   4.781 -0.1055 -0.3265 -0.3761
 3486SOL    HW117457   7.276   2.374   4.772 -0.5667  1.1635 -0.2750
 3486SOL    HW217458   7.165   2.315   4.876  0.2853 -0.7472 -0.4334
 3487SOL     OW17459   4.631   3.324   0.099 -0.1490  0.1822  0.7236
 3487SOL    HW117460   4.604   3.384   0.024  2.7477  0.1187 -0.4281
 3487SOL    HW217461   4.549   3.287   0.143 -1.9357  2.8385 -0.2451
 3488SOL     OW17462   7.117   1.900   2.062  0.1434 -0.0016 -0.4446
 3488SOL    HW117463   7.194   1.837   2.071  0.6631  0.6819  0.0448
 3488SOL    HW217464   7.131   1.978   2.124 -0.8430  0.2269 -0.5050
 3489SOL     OW17465   0.835   0.517   7.112 -0.1745 -0.3194 -0.1836
 3489SOL    HW117466   0.902   0.475   7.051 -0.0169 -0.9649  0.4413
 3489SOL    HW217467   0.774   0.447   7.148 -0.9084  0.2017 -0.3872
 3490SOL     OW17468   6.537   0.532   1.850  0.3196 -0.0088  0.1685
 3490SOL    HW117469   6.550   0.624   1.812  1.3610 -0.4757 -0.6388
 3490SOL    HW217470   6.626   0.491   1.866 -0.1442 -0.5947  1.2355
 3491SOL     OW17471   3.312   3.269   5.444 -0.1929  0.1259  0.0568
 3491SOL    HW117472   3.395   3.216   5.458 -0.6342 -0.3019  1.1145
 3491SOL    HW217473   3.232   3.209   5.458 -0.6832  0.7463 -0.0710
 3492SOL     OW17474   6.588   3.213   0.268  0.1549  0.7813 -0.4262
 3492SOL    HW117475   6.518   3.267   0.314  0.5738  0.7907  0.2115
 3492SOL    HW217476   6.567   3.116   0.276 -0.2301  0.8179 -0.9684
 3493SOL     OW17477   7.337   2.186   2.049  0.6061 -0.2051 -0.5000
 3493SOL    HW117478   7.267   2.184   2.121  1.4975  2.5838  0.5248
 3493SOL    HW217479   7.393   2.104   2.055 -1.9773 -2.0410 -0.7526
 3494SOL     OW17480   2.280   2.181   5.574  0.2338 -0.0609 -0.2129
 3494SOL    HW117481   2.206   2.169   5.508  1.5457  0.1097 -1.7465
 3494SOL    HW217482   2.319   2.272   5.562  0.2920  0.0754  1.0128
 3495SOL     OW17483   0.269   0.520   3.109  0.5291 -0.2955 -0.7190
 3495SOL    HW117484   0.283   0.588   3.037  1.2573 -0.3813 -0.6625
 3495SOL    HW217485   0.227   0.564   3.189 -0.7035 -0.2932 -1.3598
 3496SOL     OW17486   6.081   0.741   6.409 -0.0164  0.4765 -0.6293
 3496SOL    HW117487   6.144   0.677   6.454  0.2545 -0.8868 -2.8642
 3496SOL    HW217488   6.134   0.803   6.351 -0.6155  0.1287 -1.5530
 3497SOL     OW17489   3.502   2.590   6.710  0.0446 -0.0583  0.1996
 3497SOL    HW117490   3.582   2.545   6.671 -0.3257  0.2298 -0.9018
 3497SOL    HW217491   3.526   2.685   6.733  0.1295 -0.0849  0.2232
 3498SOL     OW17492   2.830   6.446   0.362 -0.2846 -0.2177  0.0667
 3498SOL    HW117493   2.746   6.469   0.411  0.1474  0.0347  0.6979
 3498SOL    HW217494   2.907   6.497   0.401  0.1124 -0.2182 -0.7025
 3499SOL     OW17495   5.835   5.894   5.117  0.2707  0.1168  0.5712
 3499SOL    HW117496   5.869   5.978   5.074 -2.6429  1.3534  0.5226
 3499SOL    HW217497   5.815   5.827   5.046  3.5916 -1.0594  0.6804
 3500SOL     OW17498   3.234   0.875   1.535 -0.0463  0.8574  0.0361
 3500SOL    HW117499   3.179   0.795   1.511 -0.5966  1.3951 -0.5693
 3500SOL    HW217500   3.179   0.958   1.520  0.8267  1.3923 -0.2846
 3501SOL     OW17501   1.892   5.157   0.818  0.3803  0.2589  0.0180
 3501SOL    HW117502   1.929   5.185   0.906 -1.3310  0.3666  0.7288
 3501SOL    HW217503   1.962   5.166   0.748  0.5027  4.5460  0.5616
 3502SOL     OW17504   5.912   6.746   4.013  0.0077 -0.0850 -0.1148
 3502SOL    HW117505   5.900   6.700   4.101 -2.4265 -0.7885 -0.7889
 3502SOL    HW217506   5.968   6.689   3.953  1.5143  0.3106  0.8863
 3503SOL     OW17507   5.634   7.284   2.710  0.1478  0.3390 -0.3046
 3503SOL    HW117508   5.685   7.333   2.781 -1.9163 -0.0736  1.5540
 3503SOL    HW217509   5.636   7.186   2.731 -1.3435  0.3201 -0.2253
 3504SOL     OW17510   5.004   0.374   1.506 -0.1028  0.3849 -0.2163
 3504SOL    HW117511   4.933   0.402   1.441 -0.1211 -0.3344 -0.5212
 3504SOL    HW217512   4.978   0.286   1.546  1.0493 -0.3227 -1.0014
 3505SOL     OW17513   4.711   3.528   2.918 -0.3244  0.5994  0.0727
 3505SOL    HW117514   4.658   3.525   3.003 -0.6116 -0.8029 -0.1517
 3505SOL    HW217515   4.784   3.596   2.927  0.2804 -0.2717  1.8047
 3506SOL     OW17516   3.868   4.120   5.310  0.7144 -0.7413 -0.3162
 3506SOL    HW117517   3.936   4.182   5.351  0.2306  0.1823 -0.9019
 3506SOL    HW217518   3.890   4.106   5.214 -0.6819  0.6403 -0.8536
 3507SOL     OW17519   1.985   2.800   1.759 -0.0646  0.0439 -0.0454
 3507SOL    HW117520   1.923   2.850   1.699 -0.0488 -0.6523 -0.6590
 3507SOL    HW217521   2.038   2.735   1.705 -0.9348 -1.4816  0.8942
 3508SOL     OW17522   3.670   2.435   4.405  0.3760 -0.3221  0.7232
 3508SOL    HW117523   3.683   2.507   4.474  0.6366 -0.4459  0.8027
 3508SOL    HW217524   3.573   2.408   4.403  0.2913 -0.0269  0.7493
 3509SOL     OW17525   6.260   5.005   7.119 -0.4099 -0.3189  0.6713
 3509SOL    HW117526   6.161   5.014   7.132 -0.3829 -0.2919  0.8644
 3509SOL    HW217527   6.307   5.053   7.193 -0.2598 -2.4827  1.9940
 3510SOL     OW17528   6.670   0.416   5.546  0.1485 -0.1679  0.0380
 3510SOL    HW117529   6.582   0.462   5.541 -0.7218 -1.5411  1.9292
 3510SOL    HW217530   6.724   0.454   5.621  1.9147  1.8221 -2.1471
 3511SOL     OW17531   3.178   0.025   2.197 -0.8953  0.3250  0.5630
 3511SOL    HW117532   3.140  -0.050   2.251  2.1165 -2.2190 -0.6861
 3511SOL    HW217533   3.262  -0.006   2.151 -0.4653  3.9892 -1.3113
 3512SOL     OW17534   1.369   2.838   6.451 -0.2509 -0.4961  0.1992
 3512SOL    HW117535   1.331   2.865   6.362  1.1937 -0.4140 -0.4066
 3512SOL    HW217536   1.367   2.738   6.460 -0.0226 -0.5286 -0.1051
 3513SOL     OW17537   4.558   1.306   5.677 -0.1425 -0.1291 -0.0079
 3513SOL    HW117538   4.610   1.336   5.757  0.1614 -1.0777  0.1465
 3513SOL    HW217539   4.558   1.379   5.608  0.0809  0.4652  0.6203
 3514SOL     OW17540   0.232   5.897   1.353  0.2999 -0.2771  0.1123
 3514SOL    HW117541   0.142   5.870   1.386 -0.2255  1.2292 -0.0451
 3514SOL    HW217542   0.238   5.883   1.254 -0.3658  1.1631 -0.1548
 3515SOL     OW17543   3.652   5.302   5.399  0.2980 -0.7595 -0.1620
 3515SOL    HW117544   3.655   5.216   5.349  1.9639  0.5813 -2.5038
 3515SOL    HW217545   3.586   5.364   5.356 -0.8269 -0.8231  1.4467
 3516SOL     OW17546   0.745   3.157   1.864  0.3197  0.1622  0.2337
 3516SOL    HW117547   0.720   3.178   1.958 -1.6627 -1.2392  0.0508
 3516SOL    HW217548   0.705   3.226   1.803 -0.7147 -0.4870  0.1807
 3517SOL     OW17549   6.568   6.539   2.091 -0.0737  0.2758  0.3734
 3517SOL    HW117550   6.621   6.474   2.146  1.4314  0.9925 -0.1877
 3517SOL    HW217551   6.511   6.488   2.026  2.6571 -0.5186 -1.4920
 3518SOL     OW17552   2.161   6.056   4.338 -0.2369  0.5281  0.0779
 3518SOL    HW117553   2.108   5.982   4.380 -1.0162  0.7417 -0.5132
 3518SOL    HW217554   2.227   6.018   4.274  1.5749  0.1294  2.1119
 3519SOL     OW17555   2.501   2.819   1.809  0.2057  0.1127 -0.4493
 3519SOL    HW117556   2.487   2.734   1.759 -1.4369  0.4778 -0.6295
 3519SOL    HW217557   2.577   2.808   1.874 -0.5558 -1.7566  0.1382
 3520SOL     OW17558   1.639   1.092   0.084 -0.2664 -0.1915 -0.1077
 3520SOL    HW117559   1.699   1.056   0.155  0.1978 -1.1262 -0.9528
 3520SOL    HW217560   1.634   1.192   0.090  0.0913 -0.2396  0.9659
 3521SOL     OW17561   6.464   5.947   6.365 -0.0364  0.1100  0.5686
 3521SOL    HW117562   6.554   5.991   6.359  0.4904 -1.0758 -0.4760
 3521SOL    HW217563   6.393   6.014   6.342  0.8275  0.1601 -2.0675
 3522SOL     OW17564   4.874   3.014   4.235 -0.2271  0.2402  0.0804
 3522SOL    HW117565   4.780   3.034   4.207 -0.5225  0.2529  1.0883
 3522SOL    HW217566   4.932   3.094   4.219 -0.1715 -0.0824 -1.4533
 3523SOL     OW17567   0.884   6.940   7.136 -0.0325  0.0517  0.1552
 3523SOL    HW117568   0.929   6.967   7.051 -0.4436  2.6702  0.7149
 3523SOL    HW217569   0.935   6.865   7.179  2.1217  0.9931 -0.7012
 3524SOL     OW17570   1.645   4.454   2.049  0.5795  0.5273  0.7185
 3524SOL    HW117571   1.654   4.456   1.950 -0.0711  0.7905  0.6606
 3524SOL    HW217572   1.588   4.531   2.079 -1.3258 -0.9568  1.0513
 3525SOL     OW17573   4.546   6.077   5.535 -0.3358  0.0299 -0.6258
 3525SOL    HW117574   4.612   6.086   5.609  0.0612 -1.1479 -0.8330
 3525SOL    HW217575   4.529   6.167   5.495  0.7823  0.4060 -0.2699
 3526SOL     OW17576   2.118   5.313   2.107 -1.0053 -0.3526  1.0939
 3526SOL    HW117577   2.212   5.322   2.076 -0.7660 -1.3896  1.5249
 3526SOL    HW217578   2.113   5.334   2.205 -1.4662  1.1398  0.7663
 3527SOL     OW17579   3.442   1.437   6.900  0.1792 -0.3659 -0.0974
 3527SOL    HW117580   3.385   1.484   6.834  0.3586  1.9812  1.3443
 3527SOL    HW217581   3.519   1.393   6.853  0.8576  2.0985 -1.3597
 3528SOL     OW17582   3.766   4.536   4.575  0.2042 -0.1444  0.2153
 3528SOL    HW117583   3.841   4.585   4.530 -0.1007 -0.3441 -0.5261
 3528SOL    HW217584   3.789   4.439   4.581 -0.4847 -0.4028 -1.0824
 3529SOL     OW17585   5.755   7.010   5.793  0.9546 -0.1672  0.0469
 3529SOL    HW117586   5.740   7.108   5.780 -0.3395 -0.3262  0.3494
 3529SOL    HW217587   5.824   6.978   5.728  0.5198  0.7005 -0.8495
 3530SOL     OW17588   4.752   5.714   4.909  0.4578 -0.1346  0.2239
 3530SOL    HW117589   4.688   5.641   4.885 -0.0191 -0.2556  1.7779
 3530SOL    HW217590   4.842   5.676   4.927  0.7817 -0.0599 -1.1800
 3531SOL     OW17591   2.147   2.308   4.565  0.3485 -0.0265 -0.2773
 3531SOL    HW117592   2.176   2.254   4.486  1.0070  1.9205 -1.4012
 3531SOL    HW217593   2.182   2.266   4.649  0.8860 -1.3115 -1.1267
 3532SOL     OW17594   5.053   3.842   4.779  0.0739 -0.1354 -0.4170
 3532SOL    HW117595   5.005   3.910   4.834  0.7051  1.1975 -1.4675
 3532SOL    HW217596   5.047   3.752   4.823  1.6061  1.0977  2.4570
 3533SOL     OW17597   3.016   4.302   0.394 -0.8590  0.1957  0.0371
 3533SOL    HW117598   3.048   4.311   0.300 -0.1323 -0.2320  0.2413
 3533SOL    HW217599   2.958   4.221   0.402  1.3930 -1.4038  0.5703
 3534SOL     OW17600   3.872   7.342   4.913 -0.0758 -0.7393 -0.9717
 3534SOL    HW117601   3.892   7.290   4.997 -0.8953  0.8661  0.2512
 3534SOL    HW217602   3.809   7.416   4.935  1.2489  0.9085 -2.6510
 3535SOL     OW17603   0.055   4.572   3.175 -0.3965  0.4704 -0.3720
 3535SOL    HW117604   0.136   4.521   3.147  0.5876  1.4779  0.5999
 3535SOL    HW217605  -0.017   4.560   3.107  1.6676  2.2290 -2.9660
 3536SOL     OW17606   6.233   0.589   2.769  0.1826  0.2085  0.1578
 3536SOL    HW117607   6.295   0.666   2.758  2.5273 -1.3250  2.1717
 3536SOL    HW217608   6.175   0.581   2.688  1.8021  2.3808 -1.2700
 3537SOL     OW17609   0.269   1.710   1.745 -0.0886 -0.0447 -0.2305
 3537SOL    HW117610   0.234   1.667   1.662 -0.5887  1.0910 -0.6136
 3537SOL    HW217611   0.368   1.698   1.749 -0.2442 -1.4102 -0.2217
 3538SOL     OW17612   1.157   3.669   6.486 -0.2778  0.5824 -0.1399
 3538SOL    HW117613   1.187   3.617   6.566  0.1906 -1.3527 -1.5275
 3538SOL    HW217614   1.222   3.743   6.468  1.7621 -1.3630 -0.9969
 3539SOL     OW17615   5.244   6.615   1.305  0.3007  0.0204  0.3264
 3539SOL    HW117616   5.258   6.713   1.291  3.0548 -0.5259 -1.1193
 3539SOL    HW217617   5.328   6.566   1.282 -0.8167 -2.6371  1.6974
 3540SOL     OW17618   4.547   0.840   6.747 -0.7352  0.1730  0.1363
 3540SOL    HW117619   4.601   0.839   6.662  2.1453 -1.2373  1.9050
 3540SOL    HW217620   4.527   0.935   6.772  0.6619  0.7288 -0.7646
 3541SOL     OW17621   6.777   6.806   0.346 -0.2326  0.0871  0.6029
 3541SOL    HW117622   6.711   6.735   0.324  0.5800 -0.4795 -0.0159
 3541SOL    HW217623   6.732   6.876   0.402 -0.7093 -1.5339  2.3111
 3542SOL     OW17624   3.753   3.152   2.501  0.0323  0.2557  0.9395
 3542SOL    HW117625   3.663   3.159   2.457  0.1330  1.8771  0.9589
 3542SOL    HW217626   3.777   3.240   2.542  1.7014 -0.1141  0.7984
 3543SOL     OW17627   5.457   5.827   4.390  0.0752  0.6990 -0.0696
 3543SOL    HW117628   5.473   5.753   4.455 -1.6964  0.5840  0.2765
 3543SOL    HW217629   5.544   5.867   4.361  1.0071 -1.1085  0.2130
 3544SOL     OW17630   0.640   3.898   2.325 -0.0582 -0.8684  0.4490
 3544SOL    HW117631   0.559   3.936   2.369  0.3893 -1.1217  1.4899
 3544SOL    HW217632   0.723   3.932   2.370  0.4312 -0.4569 -0.7310
 3545SOL     OW17633   1.950   3.963   2.916  0.6115  0.2728  0.0873
 3545SOL    HW117634   1.946   4.034   2.986 -0.3732  0.2440  0.0732
 3545SOL    HW217635   1.930   3.874   2.957  1.9868 -0.0228  0.1324
 3546SOL     OW17636   3.973   2.402   1.785 -0.3695  0.0445 -0.3320
 3546SOL    HW117637   3.910   2.403   1.708 -2.1847  2.1858  1.1088
 3546SOL    HW217638   4.021   2.490   1.789 -0.1399 -0.1327  0.8475
 3547SOL     OW17639   0.696   3.044   6.578 -0.0286 -0.8049  0.2190
 3547SOL    HW117640   0.680   3.092   6.492  1.1409  0.8482  0.9094
 3547SOL    HW217641   0.651   3.093   6.653  0.3393 -1.3387  0.7911
 3548SOL     OW17642   1.425   0.712   6.258 -0.3189 -0.3800  0.4037
 3548SOL    HW117643   1.424   0.791   6.197 -1.1525  0.6541  1.7299
 3548SOL    HW217644   1.447   0.630   6.206 -1.0240  0.4849 -1.2855
 3549SOL     OW17645   3.956   6.309   1.185 -0.0732  0.5837  0.2590
 3549SOL    HW117646   3.978   6.229   1.128 -0.4605  0.4056  0.3568
 3549SOL    HW217647   4.039   6.362   1.201  0.0550  0.5842 -0.4000
 3550SOL     OW17648   3.562   3.606   5.396 -0.5713 -0.4226  0.2126
 3550SOL    HW117649   3.490   3.587   5.462 -0.3735 -1.1382  0.2275
 3550SOL    HW217650   3.531   3.675   5.331 -0.5838  0.6767  1.3599
 3551SOL     OW17651   0.027   1.741   0.596 -0.5120 -0.1634  0.4090
 3551SOL    HW117652  -0.029   1.658   0.598 -1.9368  0.8138  0.7302
 3551SOL    HW217653   0.051   1.767   0.689  0.3009 -0.4427  0.2856
 3552SOL     OW17654   0.511   5.565   5.442 -0.2436  0.2264  0.8629
 3552SOL    HW117655   0.559   5.544   5.356  1.1043 -2.1953  2.1496
 3552SOL    HW217656   0.570   5.619   5.501  0.5694 -1.9253  2.0556
 3553SOL     OW17657   7.067   0.773   5.422 -0.9976 -0.0855  0.2969
 3553SOL    HW117658   7.142   0.839   5.427 -1.5096  0.4412  1.0666
 3553SOL    HW217659   7.034   0.769   5.327 -1.2059  1.0440  0.3083
 3554SOL     OW17660   6.553   1.918   7.146 -0.0657 -0.1917  0.3450
 3554SOL    HW117661   6.617   1.993   7.130  0.6460 -0.9503 -0.4448
 3554SOL    HW217662   6.605   1.834   7.163 -0.8489 -1.0037 -1.1637
 3555SOL     OW17663   7.036   3.205   6.612 -0.1065 -0.1323 -0.1286
 3555SOL    HW117664   7.047   3.246   6.522 -1.1515 -0.2231 -0.3051
 3555SOL    HW217665   7.092   3.254   6.678  0.8366 -0.2048 -0.8679
 3556SOL     OW17666   0.547   0.056   5.561 -0.6066 -0.2230  0.5888
 3556SOL    HW117667   0.509   0.073   5.652  1.1251  1.0631  1.0754
 3556SOL    HW217668   0.620  -0.011   5.568  1.2078  1.7086  0.5331
 3557SOL     OW17669   0.353   1.138   5.324 -0.5142 -0.1859  0.0024
 3557SOL    HW117670   0.284   1.184   5.269 -0.1868 -1.1269 -1.2052
 3557SOL    HW217671   0.443   1.178   5.306 -0.9144  2.2487  2.8825
 3558SOL     OW17672   6.092   6.898   7.082  0.3437 -0.0450  0.9491
 3558SOL    HW117673   5.994   6.878   7.093  0.1579 -0.0947 -0.6310
 3558SOL    HW217674   6.134   6.908   7.172 -1.3987  1.3094  1.6673
 3559SOL     OW17675   2.260   1.275   0.024  0.1834  0.0888  0.3595
 3559SOL    HW117676   2.301   1.354   0.070  2.0203 -0.2817 -0.6083
 3559SOL    HW217677   2.175   1.303  -0.020  0.0877  1.2054  1.2362
 3560SOL     OW17678   5.765   0.678   3.016  0.0322  0.4157  0.1837
 3560SOL    HW117679   5.816   0.613   3.071 -0.0256 -0.2501 -0.5438
 3560SOL    HW217680   5.821   0.708   2.939 -0.0625  0.9790  0.3300
 3561SOL     OW17681   5.861   0.431   4.160 -0.2524  0.6248 -0.6655
 3561SOL    HW117682   5.886   0.334   4.161 -0.2233  0.6380  0.3212
 3561SOL    HW217683   5.876   0.468   4.068 -1.4108 -0.6030 -1.3688
 3562SOL     OW17684   5.848   1.151   3.368  0.0523  0.1951  0.9576
 3562SOL    HW117685   5.913   1.155   3.443  2.4032 -0.4236 -1.0033
 3562SOL    HW217686   5.846   1.059   3.329  0.1706  0.9460 -0.8643
 3563SOL     OW17687   7.058   0.571   4.971  0.0321  0.6038 -0.1297
 3563SOL    HW117688   7.054   0.614   4.881  0.8590  0.6896 -0.1289
 3563SOL    HW217689   6.991   0.496   4.975 -0.4754  1.0200 -0.5827
 3564SOL     OW17690   3.301   1.459   6.393 -0.0455  0.2490  0.5847
 3564SOL    HW117691   3.331   1.364   6.397  1.1770  0.6588  1.3481
 3564SOL    HW217692   3.207   1.463   6.359  0.5093 -1.0919 -1.1788
 3565SOL     OW17693   7.073   7.181   1.534  0.2161  0.2320 -0.0683
 3565SOL    HW117694   6.980   7.145   1.527  0.7175 -1.1285  0.1822
 3565SOL    HW217695   7.069   7.276   1.566 -1.0516 -0.0694  0.7300
 3566SOL     OW17696   1.927   3.051   6.113 -0.0513  0.3368 -0.6891
 3566SOL    HW117697   1.922   2.995   6.196  0.0664  2.2177  0.6043
 3566SOL    HW217698   1.852   3.027   6.052 -0.1786 -1.0147 -0.0255
 3567SOL     OW17699   2.548   7.247   3.653  0.0334  0.6150  0.5877
 3567SOL    HW117700   2.457   7.246   3.612 -0.4369  0.0192  1.6180
 3567SOL    HW217701   2.617   7.265   3.583 -0.8607  0.8443 -0.2306
 3568SOL     OW17702   4.453   5.463   5.990 -0.4503  0.2514  0.3232
 3568SOL    HW117703   4.394   5.404   5.936  1.2999 -0.6260 -0.6602
 3568SOL    HW217704   4.549   5.444   5.968  0.3793 -0.9452  4.5256
 3569SOL     OW17705   0.362   0.068   5.778  0.2343 -0.4891  0.1565
 3569SOL    HW117706   0.338   0.049   5.874 -1.5004 -1.1811 -0.3941
 3569SOL    HW217707   0.372   0.166   5.766 -0.5037 -0.3198  0.8434
 3570SOL     OW17708   0.163   0.237   2.702 -0.2465  0.1856 -0.4208
 3570SOL    HW117709   0.162   0.262   2.799 -1.1638  1.9140 -0.8544
 3570SOL    HW217710   0.245   0.274   2.659 -1.5560  2.4576 -1.0415
 3571SOL     OW17711   2.441   0.037   2.935 -0.2474 -0.1369 -0.4460
 3571SOL    HW117712   2.439  -0.057   2.968  1.8776 -0.7341 -1.8923
 3571SOL    HW217713   2.464   0.038   2.837  1.3240  1.9438 -0.0978
 3572SOL     OW17714   6.552   2.705   7.317 -0.1707  0.0600  0.3059
 3572SOL    HW117715   6.463   2.751   7.318 -0.2284 -0.0206  2.8234
 3572SOL    HW217716   6.572   2.669   7.409  1.9004 -1.0078 -0.5273
 3573SOL     OW17717   4.366   3.282   7.130  0.0549 -0.3406  0.4891
 3573SOL    HW117718   4.313   3.290   7.046 -0.5536  0.6540  0.9499
 3573SOL    HW217719   4.312   3.235   7.200 -0.9414  2.2268  1.5140
 3574SOL     OW17720   7.148   4.674   4.048  0.2802  0.0335 -0.3898
 3574SOL    HW117721   7.188   4.738   3.982 -0.5617  0.3682 -0.5768
 3574SOL    HW217722   7.185   4.582   4.030 -0.3381  0.0207 -1.6740
 3575SOL     OW17723   0.858   1.337   6.764 -0.0825 -0.0348 -0.2222
 3575SOL    HW117724   0.939   1.369   6.814  0.3350 -0.6174 -0.5231
 3575SOL    HW217725   0.778   1.343   6.824  0.2012  0.4393  0.1149
 3576SOL     OW17726   2.635   2.741   2.066  0.0675 -0.0132  0.0011
 3576SOL    HW117727   2.695   2.805   2.114 -1.5782  1.3785  0.2136
 3576SOL    HW217728   2.544   2.743   2.106 -0.6790 -0.6143 -1.6118
 3577SOL     OW17729   0.518   2.036   4.000 -0.0064 -0.3460 -0.5717
 3577SOL    HW117730   0.478   2.126   3.981  0.1575 -0.7842 -3.1861
 3577SOL    HW217731   0.446   1.968   4.006  0.0229 -0.3756 -0.5557
 3578SOL     OW17732   4.809   6.567   0.618  0.6907 -0.1216  0.3630
 3578SOL    HW117733   4.780   6.499   0.685  0.7030  0.2948  0.7913
 3578SOL    HW217734   4.812   6.657   0.661  0.6766  0.1507 -0.2009
 3579SOL     OW17735   3.920   3.952   2.726 -0.3775 -0.1070 -0.4261
 3579SOL    HW117736   3.824   3.978   2.720 -0.2966  0.4148  0.4157
 3579SOL    HW217737   3.972   4.000   2.656 -0.8700 -1.0623 -1.4526
 3580SOL     OW17738   0.580   5.983   5.932  0.0669 -0.2317  0.1717
 3580SOL    HW117739   0.546   6.063   5.982  1.3123 -1.1749  2.5916
 3580SOL    HW217740   0.508   5.913   5.928 -0.2944  0.1494 -0.0346
 3581SOL     OW17741   4.564   3.126   1.574  0.0289 -0.3997 -0.6131
 3581SOL    HW117742   4.526   3.215   1.548 -0.6977 -0.6689 -0.4688
 3581SOL    HW217743   4.654   3.115   1.532 -0.5019 -0.2185 -1.8219
 3582SOL     OW17744   0.694   7.271   0.740 -0.2109 -0.2814 -0.0668
 3582SOL    HW117745   0.666   7.362   0.710  0.5626 -0.1130 -0.2969
 3582SOL    HW217746   0.670   7.259   0.837 -0.7027  0.0029 -0.1506
 3583SOL     OW17747   5.029   1.056   1.317 -0.5777  0.4261 -0.1414
 3583SOL    HW117748   5.038   1.021   1.224 -0.4686  2.6156 -0.9811
 3583SOL    HW217749   4.938   1.034   1.352 -0.5328 -0.6161 -0.6785
 3584SOL     OW17750   3.971   2.174   3.535  0.3497  0.5325 -0.2538
 3584SOL    HW117751   3.883   2.168   3.488  0.6386 -0.2979 -0.7021
 3584SOL    HW217752   3.993   2.086   3.577 -0.0461  1.3492  1.7252
 3585SOL     OW17753   1.604   4.297   3.541  0.4529  0.4945 -0.4661
 3585SOL    HW117754   1.606   4.268   3.637  0.6314  0.1159 -0.5858
 3585SOL    HW217755   1.688   4.269   3.496 -0.0515 -0.1705 -0.9895
 3586SOL     OW17756   0.345   3.010   3.575  0.2775 -0.5081 -0.3804
 3586SOL    HW117757   0.329   2.947   3.652  1.1332 -0.4821 -0.1852
 3586SOL    HW217758   0.417   3.075   3.599  0.5418 -0.4943 -1.2080
 3587SOL     OW17759   3.843   6.333   2.919 -0.1203  0.2961  0.4197
 3587SOL    HW117760   3.925   6.277   2.909 -1.1685 -1.2705  0.4317
 3587SOL    HW217761   3.817   6.370   2.830  0.7400  1.0027  0.4591
 3588SOL     OW17762   3.244   3.113   6.810 -0.2620  0.2197 -0.0112
 3588SOL    HW117763   3.230   3.023   6.769 -0.0167 -0.3156  1.0632
 3588SOL    HW217764   3.189   3.181   6.761 -1.3313 -0.7061 -0.1198
 3589SOL     OW17765   1.387   2.062   1.047  0.3419 -0.3625  0.1691
 3589SOL    HW117766   1.370   1.979   1.100  1.0669 -0.1108  0.8073
 3589SOL    HW217767   1.336   2.138   1.087 -1.3265 -0.7542 -1.1653
 3590SOL     OW17768   4.791   5.500   6.213 -0.1806  0.0220  0.7885
 3590SOL    HW117769   4.780   5.458   6.123 -1.9064 -0.2317  1.1084
 3590SOL    HW217770   4.818   5.595   6.202  1.4267 -0.4946  0.0370
 3591SOL     OW17771   3.686   0.738   0.548 -0.1755  0.3755 -0.1807
 3591SOL    HW117772   3.640   0.827   0.550 -1.0060 -0.0601  0.2767
 3591SOL    HW217773   3.732   0.726   0.460 -2.0770  0.2441 -1.1888
 3592SOL     OW17774   2.013   0.199   0.462  0.1116 -0.1525 -0.1625
 3592SOL    HW117775   1.978   0.105   0.456  0.4632 -0.4428  1.8532
 3592SOL    HW217776   2.055   0.225   0.375 -0.2780 -1.7617 -0.8427
 3593SOL     OW17777   6.872   2.894   4.583  0.4544 -0.2854 -0.2380
 3593SOL    HW117778   6.822   2.934   4.660 -0.9843  0.5702 -1.5757
 3593SOL    HW217779   6.835   2.803   4.564  1.5563 -0.9531  0.7673
 3594SOL     OW17780   4.324   2.600   3.984 -0.2689  0.0811  0.0448
 3594SOL    HW117781   4.287   2.640   3.901  0.4965  0.6151 -0.0389
 3594SOL    HW217782   4.345   2.672   4.050  0.7820 -0.1976  0.0253
 3595SOL     OW17783   0.315   4.067   2.271 -0.1642 -0.1967 -0.0386
 3595SOL    HW117784   0.373   4.037   2.347  0.3190  0.4765 -0.1357
 3595SOL    HW217785   0.363   4.053   2.185 -0.8964 -1.3916 -0.2561
 3596SOL     OW17786   3.694   6.738   0.549 -0.3722 -0.0764  0.2132
 3596SOL    HW117787   3.734   6.657   0.505 -0.6019  1.3861 -2.8149
 3596SOL    HW217788   3.596   6.739   0.534 -0.7190 -0.3886  2.2602
 3597SOL     OW17789   2.038   6.061   1.923  0.2517  0.1695  0.8608
 3597SOL    HW117790   2.083   5.973   1.938 -2.3663 -1.3448  0.1983
 3597SOL    HW217791   1.969   6.075   1.994 -0.5333  0.8869 -0.0403
 3598SOL     OW17792   1.954   4.158   2.451 -0.1699 -0.1735 -0.4593
 3598SOL    HW117793   1.958   4.255   2.473  3.1747 -0.5777  1.0052
 3598SOL    HW217794   2.024   4.109   2.504 -0.6120 -3.1157 -2.4942
 3599SOL     OW17795   4.433   1.482   1.197 -0.5798  0.1787  0.1127
 3599SOL    HW117796   4.489   1.564   1.207 -1.0212  0.5502 -0.4017
 3599SOL    HW217797   4.403   1.451   1.287  0.7896 -0.2678  0.4192
 3600SOL     OW17798   7.198   1.782   2.638 -0.5339  0.3875 -0.1128
 3600SOL    HW117799   7.240   1.785   2.729  2.5322 -2.7290 -1.3116
 3600SOL    HW217800   7.205   1.872   2.595 -1.5221  1.7585  2.4646
 3601SOL     OW17801   7.289   0.251   2.145  0.4364 -0.1557  0.5033
 3601SOL    HW117802   7.336   0.166   2.123  3.3154  1.2394  0.9999
 3601SOL    HW217803   7.190   0.235   2.147  0.7416 -2.8172 -2.1929
 3602SOL     OW17804   3.129   1.335   0.988  0.1637  0.4666  0.0474
 3602SOL    HW117805   3.095   1.304   1.077  1.0240  0.2238  0.2956
 3602SOL    HW217806   3.228   1.321   0.984  0.0532 -0.0245 -1.1514
 3603SOL     OW17807   5.624   4.572   4.041  0.7686 -0.1355  0.2622
 3603SOL    HW117808   5.567   4.515   3.982  1.2226  0.3846 -0.6792
 3603SOL    HW217809   5.676   4.636   3.986  0.3696  1.1121  1.2996
 3604SOL     OW17810   1.357   7.271   6.296  0.3372 -0.1650  0.5219
 3604SOL    HW117811   1.373   7.209   6.373  0.8615  0.3946  0.8720
 3604SOL    HW217812   1.285   7.234   6.238  0.2118 -0.7915  1.0653
 3605SOL     OW17813   3.570   1.623   3.034 -0.0168 -0.0326  0.0644
 3605SOL    HW117814   3.492   1.561   3.031  0.5456 -0.9261  2.4557
 3605SOL    HW217815   3.579   1.671   2.947 -3.1053 -0.0649 -0.3213
 3606SOL     OW17816   2.155   0.624   0.153 -0.6311  0.5665 -0.3776
 3606SOL    HW117817   2.099   0.561   0.208  1.1573 -1.3420 -0.6764
 3606SOL    HW217818   2.178   0.704   0.207 -1.2919  0.0505  0.6843
 3607SOL     OW17819   3.514   2.169   5.790  0.0619 -0.2798  0.1853
 3607SOL    HW117820   3.434   2.138   5.738 -0.4724  1.0729  0.1719
 3607SOL    HW217821   3.493   2.164   5.888  0.2942 -0.7683  0.2140
 3608SOL     OW17822   5.899   6.020   3.671 -0.2368  0.4504 -0.0064
 3608SOL    HW117823   5.927   6.070   3.753 -0.5919  1.5439 -0.5452
 3608SOL    HW217824   5.849   5.938   3.698  2.2741 -0.8332  0.9430
 3609SOL     OW17825   1.369   3.815   6.351  0.2767 -0.0972  0.0915
 3609SOL    HW117826   1.423   3.857   6.278  0.2184 -0.2052 -0.0134
 3609SOL    HW217827   1.429   3.790   6.427  0.5292 -1.1603 -0.4483
 3610SOL     OW17828   4.336   0.985   4.267  0.3628 -0.2492 -1.0100
 3610SOL    HW117829   4.242   0.954   4.250 -0.6960  0.8869  2.4060
 3610SOL    HW217830   4.348   1.078   4.232 -0.3776  0.3128  0.2027
 3611SOL     OW17831   2.383   5.348   6.238  0.4837  0.2331 -0.3218
 3611SOL    HW117832   2.397   5.249   6.242 -0.2810  0.1844  1.4818
 3611SOL    HW217833   2.395   5.388   6.329 -1.3038  1.5054 -0.6174
 3612SOL     OW17834   2.373   6.209   2.193  0.0067  0.1883 -0.7081
 3612SOL    HW117835   2.301   6.153   2.234 -0.0468  0.7914  0.0360
 3612SOL    HW217836   2.337   6.254   2.112 -0.3591  0.2354 -0.5230
 3613SOL     OW17837   7.354   7.197   1.087 -0.0356 -0.1470  0.4410
 3613SOL    HW117838   7.390   7.284   1.120 -0.7512  0.3020  0.0628
 3613SOL    HW217839   7.308   7.149   1.162 -2.3085  1.2107 -0.0230
 3614SOL     OW17840   7.356   3.482   3.366  0.2008  0.1633  0.2658
 3614SOL    HW117841   7.370   3.478   3.465  3.3268 -0.9760 -0.1616
 3614SOL    HW217842   7.348   3.390   3.329  0.4367  0.5280 -0.7239
 3615SOL     OW17843   0.897   5.684   4.775  0.7156 -0.0551 -0.3603
 3615SOL    HW117844   0.866   5.602   4.727 -0.5954 -0.7194  1.5844
 3615SOL    HW217845   0.866   5.765   4.726 -3.0121 -0.7005  0.7719
 3616SOL     OW17846   0.046   3.977   4.361 -0.7388  0.4832 -0.0942
 3616SOL    HW117847   0.074   3.948   4.269 -1.2111 -0.7031  0.1346
 3616SOL    HW217848  -0.006   3.904   4.405  0.9091  0.4100  1.7706
 3617SOL     OW17849   1.237   2.311   3.165  0.4918 -0.6686  0.5119
 3617SOL    HW117850   1.205   2.282   3.075  2.0789  0.4313 -0.4320
 3617SOL    HW217851   1.337   2.321   3.164  0.2063  3.1016  1.2545
 3618SOL     OW17852   6.024   0.127   6.629 -0.2581 -0.3300 -0.5321
 3618SOL    HW117853   6.090   0.150   6.701 -0.4655  0.3210 -0.5446
 3618SOL    HW217854   6.001   0.030   6.635  1.9927 -0.9720 -1.5905
 3619SOL     OW17855   4.880   6.193   2.876  0.0299  0.1135 -0.1741
 3619SOL    HW117856   4.953   6.261   2.887  0.3640 -0.2926  0.1440
 3619SOL    HW217857   4.791   6.239   2.881  0.1517  0.1195  3.4783
 3620SOL     OW17858   5.432   1.477   0.236  0.0029 -0.8727  0.4990
 3620SOL    HW117859   5.356   1.414   0.218  1.5912 -2.6421 -0.3049
 3620SOL    HW217860   5.441   1.491   0.334 -0.2515 -2.1086  0.7120
 3621SOL     OW17861   4.422   5.905   4.186 -0.0915 -0.3927  0.3529
 3621SOL    HW117862   4.440   6.003   4.186  4.5329 -1.1345 -0.6194
 3621SOL    HW217863   4.445   5.867   4.276 -1.2142 -0.7190  0.5106
 3622SOL     OW17864   5.193   2.006   2.242 -0.0060  0.3887  0.6481
 3622SOL    HW117865   5.170   1.910   2.226 -1.7142  0.7128  1.0347
 3622SOL    HW217866   5.198   2.023   2.340 -1.1578  1.0112  0.6035
 3623SOL     OW17867   3.372   4.793   4.556  0.2121 -0.5747 -0.5748
 3623SOL    HW117868   3.347   4.775   4.460  1.8916  0.6001 -1.2528
 3623SOL    HW217869   3.295   4.835   4.603 -0.6703 -1.2600 -1.3782
 3624SOL     OW17870   4.725   6.387   7.062 -0.8827 -0.1343  0.6973
 3624SOL    HW117871   4.663   6.452   7.105  1.3575  2.5816 -0.0583
 3624SOL    HW217872   4.706   6.382   6.964  1.8795  2.9053 -0.0597
 3625SOL     OW17873   5.330   4.968   1.231 -0.1193 -0.7294  0.6177
 3625SOL    HW117874   5.315   4.935   1.137  0.4914  1.1133 -0.1463
 3625SOL    HW217875   5.421   4.941   1.262  0.9827  1.4751 -0.5769
 3626SOL     OW17876   0.802   1.739   1.919  0.1858  0.5838  0.4545
 3626SOL    HW117877   0.789   1.835   1.944  0.1659  1.4958 -2.7160
 3626SOL    HW217878   0.891   1.729   1.874 -0.9672 -0.2836 -1.7313
 3627SOL     OW17879   7.329   2.021   5.830  0.6141 -0.2547 -0.1305
 3627SOL    HW117880   7.391   1.955   5.874  1.9436 -0.2873 -1.9926
 3627SOL    HW217881   7.353   2.029   5.733  0.3520  2.8293  0.0334
 3628SOL     OW17882   5.442   3.535   1.980  0.4292  0.0217  0.0101
 3628SOL    HW117883   5.477   3.600   1.913  0.7003  0.2124  0.3351
 3628SOL    HW217884   5.344   3.548   1.991  0.5617  0.6761  0.4100
 3629SOL     OW17885   2.197   7.012   5.935  0.5292 -0.6675  0.3333
 3629SOL    HW117886   2.156   7.070   6.005  0.7252 -1.3292  0.9963
 3629SOL    HW217887   2.231   7.070   5.860 -0.7104 -0.0528  0.2386
 3630SOL     OW17888   5.091   3.678   2.742 -0.5141 -0.4298 -0.4000
 3630SOL    HW117889   5.136   3.594   2.711  0.3732  0.0372 -0.3941
 3630SOL    HW217890   5.146   3.757   2.716 -1.6815  0.1940 -0.9969
 3631SOL     OW17891   3.925   5.186   6.485 -0.4911 -0.1571  0.4476
 3631SOL    HW117892   3.876   5.235   6.412  0.5290  0.6230  0.2773
 3631SOL    HW217893   3.934   5.089   6.459  1.1750  0.4057 -1.1762
 3632SOL     OW17894   6.923   5.779   0.023  0.1257 -0.5667 -0.0022
 3632SOL    HW117895   6.918   5.744  -0.070 -0.5802 -1.8343  0.4879
 3632SOL    HW217896   6.852   5.735   0.078  2.6908 -2.4063  1.9675
 3633SOL     OW17897   5.301   1.044   4.836 -0.8200 -0.1290  0.2339
 3633SOL    HW117898   5.394   1.013   4.858  0.1191  2.4037  0.0466
 3633SOL    HW217899   5.235   0.976   4.866  1.0730 -1.8176  0.7010
 3634SOL     OW17900   4.985   1.734   5.838  0.7261 -0.1377 -0.0469
 3634SOL    HW117901   4.951   1.696   5.923  0.0550  0.1322 -0.1915
 3634SOL    HW217902   4.975   1.667   5.765 -0.5252  0.3288 -0.3168
 3635SOL     OW17903   1.231   1.438   0.093 -0.1373 -0.2669 -0.0469
 3635SOL    HW117904   1.267   1.531   0.094  2.3069 -1.1612 -0.2387
 3635SOL    HW217905   1.147   1.435   0.038  0.1680  1.6616 -0.6661
 3636SOL     OW17906   3.827   2.942   6.952  0.3545 -0.1029 -0.1728
 3636SOL    HW117907   3.739   2.901   6.929 -0.6853  1.5466  0.6763
 3636SOL    HW217908   3.896   2.871   6.966 -0.3505 -1.3312 -2.7669
 3637SOL     OW17909   6.915   5.861   6.875 -0.5968  0.3886  0.2038
 3637SOL    HW117910   7.008   5.843   6.906  0.2170  0.9984 -1.7834
 3637SOL    HW217911   6.873   5.931   6.932  0.2685  0.3400  0.9041
 3638SOL     OW17912   4.181   1.115   3.328  0.5289 -0.3268  0.4472
 3638SOL    HW117913   4.098   1.111   3.272  0.2734  1.0252  0.7276
 3638SOL    HW217914   4.219   1.207   3.326  1.7537 -0.8104  0.7336
 3639SOL     OW17915   6.054   3.580   5.287 -0.5438 -0.1299  0.2960
 3639SOL    HW117916   5.978   3.574   5.352 -0.5433 -2.8596  0.1036
 3639SOL    HW217917   6.022   3.554   5.196  0.5238 -0.8831  0.1331
 3640SOL     OW17918   1.683   2.415   5.418 -0.1907  0.2080  0.6071
 3640SOL    HW117919   1.674   2.401   5.319  1.1899  0.9947  0.3581
 3640SOL    HW217920   1.631   2.344   5.466 -0.7118 -0.3043 -0.6779
 3641SOL     OW17921   2.354   3.847   1.732  0.6366  0.4392  0.0424
 3641SOL    HW117922   2.256   3.838   1.718  0.5792 -0.7882  1.1743
 3641SOL    HW217923   2.396   3.883   1.648 -0.5435 -0.5909 -1.0106
 3642SOL     OW17924   1.893   5.684   6.241  0.4642  0.0179 -0.1698
 3642SOL    HW117925   1.976   5.718   6.196  0.7181 -0.6864 -0.2277
 3642SOL    HW217926   1.850   5.614   6.184  0.5599 -0.5749  0.4826
 3643SOL     OW17927   2.043   2.140   2.249  0.5735 -0.5792  0.2414
 3643SOL    HW117928   2.003   2.226   2.216  0.4062  0.0637  2.0524
 3643SOL    HW217929   2.120   2.114   2.191  0.3523  0.5692 -0.5790
 3644SOL     OW17930   1.444   4.099   7.032  0.1424  0.0428  0.2072
 3644SOL    HW117931   1.454   4.168   7.104  1.7877  0.2714 -0.2328
 3644SOL    HW217932   1.468   4.009   7.069  0.3986  0.0715  0.1104
 3645SOL     OW17933   0.978   4.764   4.019  0.0875 -0.0790  0.3898
 3645SOL    HW117934   0.935   4.780   3.931  0.2227  1.0361  0.5256
 3645SOL    HW217935   1.048   4.834   4.036 -1.1718  0.7785  2.1695
 3646SOL     OW17936   4.710   5.038   2.209  0.1456  0.9391 -0.2241
 3646SOL    HW117937   4.680   5.115   2.152  1.1658  2.2153  0.9474
 3646SOL    HW217938   4.806   5.050   2.234 -0.0644 -0.0355  1.0783
 3647SOL     OW17939   6.262   2.211   4.609  0.0135 -0.1102  0.0107
 3647SOL    HW117940   6.257   2.311   4.615  0.3379 -0.0338 -0.8451
 3647SOL    HW217941   6.174   2.171   4.632 -0.1370  0.3840  0.2799
 3648SOL     OW17942   3.651   6.400   2.270  0.3944  0.2187  0.2851
 3648SOL    HW117943   3.600   6.416   2.186  0.0616  0.5916  0.5561
 3648SOL    HW217944   3.588   6.367   2.341 -0.3479  4.8901  1.9500
 3649SOL     OW17945   5.623   5.029   5.101  0.4867 -0.1418 -0.0949
 3649SOL    HW117946   5.635   5.120   5.141 -0.3090  0.8498 -2.0289
 3649SOL    HW217947   5.662   4.960   5.161  1.4055  1.5211  1.2376
 3650SOL     OW17948   1.886   5.423   2.007 -0.1115  0.2551 -0.2306
 3650SOL    HW117949   1.975   5.383   2.027  0.3981  0.1520 -2.6261
 3650SOL    HW217950   1.847   5.380   1.926 -0.8940  2.5052 -1.0853
 3651SOL     OW17951   0.925   2.430   6.368  0.2972  0.5548 -0.4172
 3651SOL    HW117952   0.911   2.382   6.281 -0.3927 -0.7868  0.4154
 3651SOL    HW217953   0.989   2.378   6.425  0.0321  0.9386  0.2404
 3652SOL     OW17954   2.301   6.955   0.896  0.1599  0.4582  0.0070
 3652SOL    HW117955   2.287   7.041   0.946  1.5513  0.6274  0.1327
 3652SOL    HW217956   2.378   6.965   0.833  0.8597 -0.9339  0.6127
 3653SOL     OW17957   3.295   1.749   1.497  0.5056  0.2046  0.0231
 3653SOL    HW117958   3.276   1.679   1.566  2.1309 -0.2546  0.0344
 3653SOL    HW217959   3.295   1.839   1.540  1.6422 -0.0911  0.6772
 3654SOL     OW17960   1.451   3.812   0.588 -0.1679 -0.2690  0.0122
 3654SOL    HW117961   1.434   3.910   0.597 -0.1397 -0.1947 -0.6597
 3654SOL    HW217962   1.543   3.791   0.620 -0.6397 -0.2877  1.3856
 3655SOL     OW17963   5.620   5.246   6.116 -0.5184  0.8852  0.2796
 3655SOL    HW117964   5.639   5.251   6.214  0.0211 -0.0686  0.2220
 3655SOL    HW217965   5.697   5.284   6.065  0.3827 -1.0808  0.1295
 3656SOL     OW17966   1.930   0.754   6.823  0.3826  0.3782 -0.3500
 3656SOL    HW117967   1.890   0.680   6.769  1.8728  0.2997 -1.3767
 3656SOL    HW217968   2.029   0.743   6.827  0.2241 -0.2731  3.4384
 3657SOL     OW17969   0.482   4.810   2.080  0.4514 -0.2144 -1.0752
 3657SOL    HW117970   0.421   4.732   2.094  0.3509 -0.2195 -1.5421
 3657SOL    HW217971   0.513   4.812   1.985  2.5814 -1.2499 -0.4543
 3658SOL     OW17972   3.791   6.496   6.805  0.2209 -0.0829  0.3144
 3658SOL    HW117973   3.791   6.590   6.772 -1.8435  0.4495  1.7584
 3658SOL    HW217974   3.701   6.455   6.790  0.5656 -1.2387  1.3458
 3659SOL     OW17975   2.994   0.657   2.567  0.1584  0.5260 -0.4162
 3659SOL    HW117976   2.963   0.566   2.538  0.2783  0.9199 -1.8155
 3659SOL    HW217977   2.914   0.713   2.589 -0.0896  1.0483 -2.5360
 3660SOL     OW17978   7.052   4.662   0.452 -0.2086  0.4720  0.7049
 3660SOL    HW117979   6.987   4.621   0.387  1.0046 -0.1576 -0.1389
 3660SOL    HW217980   7.018   4.652   0.545  0.7412 -3.8056  0.6555
 3661SOL     OW17981   0.162   6.144   7.095 -0.3125  0.1130  0.1651
 3661SOL    HW117982   0.185   6.210   7.167 -0.7142 -0.3381  0.7106
 3661SOL    HW217983   0.068   6.113   7.107  0.1163 -1.1320  0.3608
 3662SOL     OW17984   6.267   5.936   3.233 -0.2969 -0.0837  0.0473
 3662SOL    HW117985   6.244   5.885   3.150 -1.5467 -0.3623  0.5511
 3662SOL    HW217986   6.318   5.878   3.296  0.0276 -0.0927 -0.2262
 3663SOL     OW17987   5.380   5.181   4.719 -0.1388  0.0964 -0.0949
 3663SOL    HW117988   5.357   5.126   4.639 -1.7232 -0.1881  0.5465
 3663SOL    HW217989   5.455   5.138   4.769  0.7499  0.1891 -1.3173
 3664SOL     OW17990   5.146   1.285   0.442  0.3816  0.4317 -0.0615
 3664SOL    HW117991   5.128   1.317   0.535 -0.4725  2.0296 -0.7648
 3664SOL    HW217992   5.080   1.325   0.379  0.0438 -1.7824 -1.1727
 3665SOL     OW17993   2.067   6.743   0.494 -0.5246 -0.2087 -0.4438
 3665SOL    HW117994   2.033   6.790   0.575  0.1668 -0.8527  0.2314
 3665SOL    HW217995   2.082   6.809   0.421 -0.6530  0.4557  0.1233
 3666SOL     OW17996   1.114   3.802   0.195  0.2140 -0.2016 -0.0187
 3666SOL    HW117997   1.049   3.738   0.156  1.7783 -1.4970 -0.5700
 3666SOL    HW217998   1.148   3.863   0.123  1.3571 -1.0708 -0.2285
 3667SOL     OW17999   5.103   4.143   2.890  0.6705  0.0719 -0.8492
 3667SOL    HW118000   5.171   4.078   2.926  0.9241 -0.0709 -1.5731
 3667SOL    HW218001   5.150   4.215   2.839  0.4268  1.0911  0.3216
 3668SOL     OW18002   6.584   4.529   7.134  0.4907 -0.2112 -0.0644
 3668SOL    HW118003   6.617   4.442   7.098  1.4557  0.1318 -0.0280
 3668SOL    HW218004   6.661   4.583   7.166  0.0484  1.2619 -1.4232
 3669SOL     OW18005   4.374   3.955   0.419  0.2940  0.4866  0.0156
 3669SOL    HW118006   4.275   3.963   0.416  0.4085  2.5058  1.1421
 3669SOL    HW218007   4.400   3.895   0.495 -0.0435  0.3406  0.0155
 3670SOL     OW18008   1.420   1.101   2.929  0.4100 -0.0038 -0.0597
 3670SOL    HW118009   1.516   1.077   2.942 -0.1088 -1.3682  1.4380
 3670SOL    HW218010   1.363   1.036   2.979 -1.2155  1.8336  0.5301
 3671SOL     OW18011   1.201   3.074   6.851  0.0107  0.3319 -0.6019
 3671SOL    HW118012   1.278   3.029   6.896 -0.1193  0.7022 -0.0042
 3671SOL    HW218013   1.137   3.108   6.921 -0.4123  0.5194 -1.0792
 3672SOL     OW18014   6.836   1.910   1.711  0.2548  1.3779 -0.7591
 3672SOL    HW118015   6.820   1.974   1.786  1.0118 -1.5845  2.0510
 3672SOL    HW218016   6.749   1.889   1.666 -1.0621 -0.5484  2.5153
 3673SOL     OW18017   5.793   5.032   6.996 -0.2208 -0.4251 -0.7520
 3673SOL    HW118018   5.839   4.949   6.964  0.1012  0.0347 -1.4952
 3673SOL    HW218019   5.815   5.108   6.934  0.5900  0.5323  0.6923
 3674SOL     OW18020   1.642   2.740   2.387  0.2259  0.1210 -0.0430
 3674SOL    HW118021   1.675   2.805   2.318  0.3461  0.2335  0.1197
 3674SOL    HW218022   1.602   2.791   2.463  0.5244  0.0094  0.1888
 3675SOL     OW18023   6.151   5.120   0.619  0.0143  0.1343  0.3602
 3675SOL    HW118024   6.245   5.089   0.604 -0.4978 -0.9265 -0.7075
 3675SOL    HW218025   6.104   5.126   0.531 -0.7525  1.2116  0.8332
 3676SOL     OW18026   3.855   0.779   2.385  0.1071 -0.1543  0.1422
 3676SOL    HW118027   3.869   0.876   2.405 -0.1116 -0.2049  0.5501
 3676SOL    HW218028   3.772   0.767   2.329  0.4303 -0.0594 -0.3583
 3677SOL     OW18029   2.653   2.009   5.855 -0.0663 -0.2583 -0.3352
 3677SOL    HW118030   2.682   1.927   5.807 -0.6299 -1.4715  1.3460
 3677SOL    HW218031   2.554   2.007   5.868  0.1572 -0.3512  1.5376
 3678SOL     OW18032   5.588   0.242   6.513  0.0699 -0.2885  0.2976
 3678SOL    HW118033   5.639   0.159   6.492  3.8206  1.0247  3.6707
 3678SOL    HW218034   5.632   0.321   6.470  0.0627  0.6775  1.9915
 3679SOL     OW18035   2.522   1.943   4.266 -0.4646 -0.4138 -0.3638
 3679SOL    HW118036   2.479   1.933   4.356 -0.8935  0.9988 -0.3894
 3679SOL    HW218037   2.545   1.853   4.229 -2.0937 -1.1226  0.2941
 3680SOL     OW18038   0.324   3.844   4.954  0.1147 -0.8489 -0.3016
 3680SOL    HW118039   0.397   3.871   5.016  0.8484 -1.3929 -0.9306
 3680SOL    HW218040   0.238   3.887   4.984  0.5780 -0.6219  0.7286
 3681SOL     OW18041   1.444   4.342   4.504 -1.0169 -0.1918  0.1493
 3681SOL    HW118042   1.412   4.248   4.519 -1.3569 -0.1994 -0.6256
 3681SOL    HW218043   1.395   4.382   4.427  1.4745 -0.5267 -1.6644
 3682SOL     OW18044   2.222   7.321   0.257 -0.5710  0.2446  0.0162
 3682SOL    HW118045   2.137   7.268   0.266 -0.2127 -0.2651  0.4016
 3682SOL    HW218046   2.212   7.387   0.183 -1.4116  0.3769  0.2379
 3683SOL     OW18047   0.372   3.973   7.092 -0.2036 -0.2300 -0.2168
 3683SOL    HW118048   0.314   4.051   7.067  0.1999 -0.3644 -1.6154
 3683SOL    HW218049   0.390   3.918   7.010 -0.3123 -1.6783  0.7230
 3684SOL     OW18050   4.224   1.436   5.338  0.8854  0.2811  0.4948
 3684SOL    HW118051   4.172   1.520   5.322  0.9297  0.5078  1.4903
 3684SOL    HW218052   4.320   1.451   5.315  0.6605  0.1067 -0.5707
 3685SOL     OW18053   2.400   3.697   4.321  0.2388 -0.2823  0.6005
 3685SOL    HW118054   2.451   3.672   4.403  1.9752  1.9466  0.2306
 3685SOL    HW218055   2.445   3.659   4.240  0.4002  0.3180  0.4056
 3686SOL     OW18056   5.244   2.747   3.891  0.1453  0.1838 -0.2931
 3686SOL    HW118057   5.258   2.807   3.813 -0.4929  0.6205 -0.0842
 3686SOL    HW218058   5.188   2.795   3.960  0.6668 -0.2041  0.4072
 3687SOL     OW18059   3.519   3.082   5.483  0.2841  0.3930 -0.2354
 3687SOL    HW118060   3.595   3.103   5.545  1.5601 -2.0320 -0.9205
 3687SOL    HW218061   3.483   2.992   5.503 -2.7993  1.7022  0.3711
 3688SOL     OW18062   5.732   3.190   0.164  0.3888 -0.5308 -0.2792
 3688SOL    HW118063   5.716   3.193   0.065  0.5105  0.7708 -0.2688
 3688SOL    HW218064   5.687   3.267   0.208  1.2402 -0.4870  0.5432
 3689SOL     OW18065   4.020   4.185   3.246 -0.5922  0.2469 -0.3465
 3689SOL    HW118066   4.003   4.123   3.169 -2.0484 -1.2749  1.1490
 3689SOL    HW218067   4.047   4.131   3.326 -0.0536  1.7308  0.4833
 3690SOL     OW18068   5.234   0.954   4.125  0.0957 -0.5110  0.7735
 3690SOL    HW118069   5.150   1.007   4.116  1.2857  1.2862  0.0278
 3690SOL    HW218070   5.212   0.856   4.129 -1.9437 -0.1368 -0.6526
 3691SOL     OW18071   6.133   5.377   0.868  0.0399  0.4966  0.5115
 3691SOL    HW118072   6.157   5.415   0.779  0.7198  1.2584  1.0150
 3691SOL    HW218073   6.170   5.435   0.940 -2.8026  1.3712  1.3349
 3692SOL     OW18074   7.078   3.799   7.074  0.4159  0.5756  0.0175
 3692SOL    HW118075   7.060   3.760   6.984  0.5337 -1.0061  0.6711
 3692SOL    HW218076   7.038   3.741   7.145  1.9861  0.7624  1.0930
 3693SOL     OW18077   6.115   1.237   3.583  0.1766  0.5222 -0.1028
 3693SOL    HW118078   6.119   1.294   3.500  0.6327  1.4430  0.5456
 3693SOL    HW218079   6.177   1.159   3.573 -1.1009 -0.3680 -1.3569
 3694SOL     OW18080   1.884   3.788   4.580 -0.7099 -0.0160 -0.5544
 3694SOL    HW118081   1.858   3.780   4.484 -1.2681 -1.8938 -0.2575
 3694SOL    HW218082   1.977   3.756   4.592  1.0763  4.5015 -1.2066
 3695SOL     OW18083   3.647   2.476   6.454 -0.5338 -0.1707  0.5255
 3695SOL    HW118084   3.569   2.415   6.465 -1.4029  0.5087 -1.6029
 3695SOL    HW218085   3.616   2.565   6.421  0.7386  1.4310  3.4051
 3696SOL     OW18086   7.235   0.797   2.506 -0.4445  0.4221 -0.6618
 3696SOL    HW118087   7.202   0.703   2.513 -0.4682  0.3432 -1.6959
 3696SOL    HW218088   7.334   0.798   2.515 -0.5908  0.5244  1.2502
 3697SOL     OW18089   5.963   5.626   2.217  0.0851 -0.2459  0.1518
 3697SOL    HW118090   6.055   5.597   2.190 -0.0619 -0.5692 -0.0074
 3697SOL    HW218091   5.897   5.556   2.189 -0.6802  1.7468 -3.2074
 3698SOL     OW18092   6.903   3.472   4.988 -0.5128  0.0825 -0.4142
 3698SOL    HW118093   6.858   3.418   5.059 -1.2149  0.9556 -0.1923
 3698SOL    HW218094   7.001   3.478   5.007 -0.4530 -1.0030 -0.3743
 3699SOL     OW18095   0.766   3.682   3.161  0.5523 -0.1418 -0.1912
 3699SOL    HW118096   0.672   3.677   3.194 -0.2683 -0.6180 -2.5421
 3699SOL    HW218097   0.826   3.709   3.237 -1.4985  0.4839  1.2591
 3700SOL     OW18098   7.071   3.062   5.051  0.5497  0.5214 -0.2415
 3700SOL    HW118099   7.052   3.006   5.131 -0.8327  1.1739 -0.1027
 3700SOL    HW218100   7.166   3.047   5.022  1.3905  1.0315  2.1024
 3701SOL     OW18101   2.858   5.430   1.343  0.1063  0.5467  0.1517
 3701SOL    HW118102   2.931   5.366   1.368 -1.6672 -1.2648  0.8833
 3701SOL    HW218103   2.791   5.382   1.286  0.9197  2.9518 -2.9296
 3702SOL     OW18104   5.595   6.254   6.291 -0.1187  0.2907  0.2550
 3702SOL    HW118105   5.505   6.257   6.249  0.1502 -0.8260 -0.4160
 3702SOL    HW218106   5.653   6.326   6.253 -0.7304  1.0293  0.7120
 3703SOL     OW18107   3.021   2.534   3.380  0.0070 -0.3404  0.0869
 3703SOL    HW118108   2.944   2.477   3.349 -0.1965  0.0693 -0.1712
 3703SOL    HW218109   3.106   2.502   3.338 -0.3955  0.7735 -1.6525
 3704SOL     OW18110   1.659   0.667   5.480 -0.1139 -0.4550 -0.0129
 3704SOL    HW118111   1.688   0.633   5.390 -1.1780  0.6222 -0.7748
 3704SOL    HW218112   1.712   0.621   5.551  1.4657 -0.5788 -1.2335
 3705SOL     OW18113   1.753   3.395   2.323 -0.2124 -0.2916  0.1777
 3705SOL    HW118114   1.693   3.340   2.265 -2.2429  0.8353  1.1340
 3705SOL    HW218115   1.778   3.479   2.275  2.0282 -1.5158 -0.8733
 3706SOL     OW18116   1.941   1.633   7.356 -0.4467  0.0313  0.6031
 3706SOL    HW118117   2.030   1.633   7.310 -1.4843 -0.3475 -1.4847
 3706SOL    HW218118   1.949   1.589   7.445  1.4258 -0.1311  0.3692
 3707SOL     OW18119   3.685   0.152   3.770 -0.1939 -0.7605 -0.0441
 3707SOL    HW118120   3.743   0.093   3.714  2.1184  0.2967  1.1757
 3707SOL    HW218121   3.655   0.230   3.716  3.9776  1.5101  0.7346
 3708SOL     OW18122   0.520   3.444   3.958  0.3549 -0.1748 -0.2869
 3708SOL    HW118123   0.433   3.424   3.912 -0.0164  1.3442 -0.2723
 3708SOL    HW218124   0.593   3.451   3.891 -0.1845  2.0326 -0.6971
 3709SOL     OW18125   4.260   4.582   3.405  0.3086  0.0043  0.0736
 3709SOL    HW118126   4.208   4.564   3.489  0.4538 -0.5711  0.0469
 3709SOL    HW218127   4.336   4.644   3.426 -2.3080  3.4967 -0.5635
 3710SOL     OW18128   5.309   0.455   6.965 -0.3753 -0.3733  0.1735
 3710SOL    HW118129   5.282   0.467   7.061  0.6914  1.5667  0.2615
 3710SOL    HW218130   5.382   0.387   6.959  0.3989  0.3778  0.8964
 3711SOL     OW18131   3.101   5.203   4.690  0.1071 -0.3922  0.0860
 3711SOL    HW118132   3.112   5.108   4.719 -1.3662 -0.4429  0.4867
 3711SOL    HW218133   3.188   5.237   4.654  0.9167 -1.5561  0.9255
 3712SOL     OW18134   3.570   6.313   0.724  0.0348  0.2954 -0.1086
 3712SOL    HW118135   3.506   6.259   0.669  1.3825  0.6019 -1.9981
 3712SOL    HW218136   3.586   6.401   0.681 -0.1257  1.1810  1.6149
 3713SOL     OW18137   3.698   2.132   4.432  0.1355  1.2704  0.1290
 3713SOL    HW118138   3.732   2.103   4.521  1.1344  1.2216 -0.2548
 3713SOL    HW218139   3.681   2.230   4.432 -0.8746  1.1040  0.6816
 3714SOL     OW18140   1.185   1.642   2.241 -0.1833 -0.4863 -0.2994
 3714SOL    HW118141   1.167   1.584   2.320 -1.3526 -2.2451 -1.8162
 3714SOL    HW218142   1.226   1.728   2.271 -2.4123 -0.3021  2.4094
 3715SOL     OW18143   2.919   3.643   4.818 -0.1871 -0.1075  0.4368
 3715SOL    HW118144   2.934   3.552   4.856 -0.5606 -0.5949 -0.5597
 3715SOL    HW218145   2.871   3.699   4.885 -2.7835 -1.6219 -0.0510
 3716SOL     OW18146   6.346   2.605   2.546 -0.0353 -0.0200  0.0855
 3716SOL    HW118147   6.381   2.594   2.453 -1.4480  0.6649 -0.5328
 3716SOL    HW218148   6.255   2.565   2.553 -0.1828  0.4584  1.0065
 3717SOL     OW18149   0.549   3.463   3.142 -0.3646  0.2023 -0.0975
 3717SOL    HW118150   0.497   3.388   3.101 -1.4132  1.1548 -0.5512
 3717SOL    HW218151   0.641   3.466   3.102 -0.6776 -0.1815 -0.8488
 3718SOL     OW18152   1.477   1.050   1.892 -0.0783 -0.0776  0.1223
 3718SOL    HW118153   1.470   0.952   1.909 -0.3849 -0.0249  0.3094
 3718SOL    HW218154   1.399   1.080   1.837 -0.6208  0.2742  1.0710
 3719SOL     OW18155   2.230   0.625   2.090  0.3014 -0.0539 -0.3190
 3719SOL    HW118156   2.192   0.716   2.075  0.7424  0.3011  0.6966
 3719SOL    HW218157   2.155   0.558   2.094  0.0552  0.0529 -2.3992
 3720SOL     OW18158   1.783   4.207   3.980  0.0151 -0.0797 -0.4515
 3720SOL    HW118159   1.696   4.222   4.028 -0.2438 -1.7812 -0.3363
 3720SOL    HW218160   1.858   4.234   4.039 -0.4201  0.8178 -0.3050
 3721SOL     OW18161   7.268   3.136   2.910 -0.1061 -0.8799  0.6256
 3721SOL    HW118162   7.184   3.144   2.963 -0.7862 -0.4165 -0.5122
 3721SOL    HW218163   7.347   3.153   2.970 -0.8681 -0.1062  1.4220
 3722SOL     OW18164   6.237   6.076   6.265 -0.6356 -0.0058 -0.1798
 3722SOL    HW118165   6.276   6.028   6.186  0.8261 -1.0316  1.1366
 3722SOL    HW218166   6.138   6.064   6.265 -0.8228  1.1161 -2.5763
 3723SOL     OW18167   3.393   5.243   4.618  0.0723 -0.0975  0.2640
 3723SOL    HW118168   3.416   5.275   4.709 -1.6267  0.1579  0.6143
 3723SOL    HW218169   3.374   5.321   4.558  0.8211 -0.2762 -0.2223
 3724SOL     OW18170   3.045   6.486   2.814 -0.2220 -0.3842  0.0345
 3724SOL    HW118171   3.126   6.466   2.759 -1.1414 -0.0859 -1.4726
 3724SOL    HW218172   3.012   6.578   2.793 -2.5613 -1.4972 -1.4993
 3725SOL     OW18173   6.936   0.851   1.978 -0.3400 -0.0133  0.0301
 3725SOL    HW118174   7.036   0.856   1.978 -0.2639 -1.1695  1.4247
 3725SOL    HW218175   6.898   0.943   1.987  0.6174  0.3538  0.3608
 3726SOL     OW18176   4.725   3.075   0.107  0.7491  0.0421 -0.0864
 3726SOL    HW118177   4.752   3.030   0.192 -1.8260 -0.8713  0.3019
 3726SOL    HW218178   4.697   3.169   0.126  3.4562  0.9803 -0.4851
 3727SOL     OW18179   2.427   4.666   7.017  0.7299  0.4133  0.0882
 3727SOL    HW118180   2.405   4.579   7.060 -0.6945  0.7626  0.1095
 3727SOL    HW218181   2.526   4.675   7.007  0.9374 -0.7547  1.0116
 3728SOL     OW18182   2.714   1.264   4.621  0.9028  0.0535 -0.1427
 3728SOL    HW118183   2.772   1.227   4.549  1.6704 -1.3006  1.1330
 3728SOL    HW218184   2.771   1.314   4.686  0.5818 -0.8740  0.8636
 3729SOL     OW18185   5.085   4.572   2.231  0.1198 -0.3294  0.5877
 3729SOL    HW118186   5.059   4.579   2.134 -0.9471  1.1573  0.9601
 3729SOL    HW218187   5.003   4.577   2.288  0.9519  1.5339  1.6721
 3730SOL     OW18188   0.685   5.277   4.566 -0.3885  0.6598 -0.0139
 3730SOL    HW118189   0.701   5.194   4.513  1.6072  0.7916  0.3665
 3730SOL    HW218190   0.607   5.327   4.526 -1.9840 -1.6525  0.1096
 3731SOL     OW18191   2.319   4.584   4.179 -0.0074 -0.0819  0.3843
 3731SOL    HW118192   2.368   4.614   4.097 -2.2892  0.8123 -0.6823
 3731SOL    HW218193   2.350   4.493   4.204 -0.4966 -1.1108 -2.5259
 3732SOL     OW18194   6.579   1.321   3.064 -0.2882 -0.6399 -0.5302
 3732SOL    HW118195   6.504   1.351   3.123  2.2139  1.5503  1.6644
 3732SOL    HW218196   6.616   1.234   3.099  0.2907 -0.0572  0.3159
 3733SOL     OW18197   2.862   7.133   0.686 -0.3347 -0.1877 -0.2413
 3733SOL    HW118198   2.889   7.106   0.779 -2.0823  0.7255  0.5581
 3733SOL    HW218199   2.849   7.051   0.630  0.6319 -0.7549  0.3498
 3734SOL     OW18200   4.285   5.610   2.612 -0.3258  0.0915  0.3943
 3734SOL    HW118201   4.350   5.659   2.671 -0.1150 -0.8717  0.9841
 3734SOL    HW218202   4.211   5.572   2.669 -0.7971  0.2216 -0.1304
 3735SOL     OW18203   4.875   1.963   4.779  0.0796 -0.1891  0.4263
 3735SOL    HW118204   4.946   1.906   4.818  0.6133  0.7223  0.8045
 3735SOL    HW218205   4.916   2.030   4.717 -0.6049 -0.6490 -0.5512
 3736SOL     OW18206   1.450   5.063   6.908 -0.4446  0.9781  0.3309
 3736SOL    HW118207   1.351   5.047   6.915 -0.2062 -1.5143 -1.3827
 3736SOL    HW218208   1.478   5.058   6.812  1.6800 -0.7202  0.9876
 3737SOL     OW18209   3.881   0.526   3.039  0.3575 -0.0395 -0.2124
 3737SOL    HW118210   3.919   0.492   3.125  0.0374  0.1563  0.0073
 3737SOL    HW218211   3.936   0.604   3.007 -0.3266  0.7568  0.5193
 3738SOL     OW18212   1.975   4.586   0.355  0.0570 -0.8535 -0.3564
 3738SOL    HW118213   1.898   4.619   0.408 -0.5924 -0.1906 -1.6809
 3738SOL    HW218214   1.993   4.650   0.279  1.6109 -1.2312 -0.3241
 3739SOL     OW18215   6.446   5.409   4.086  0.0626 -0.5887  0.4380
 3739SOL    HW118216   6.403   5.359   4.162 -1.2892  0.4670  0.3967
 3739SOL    HW218217   6.499   5.486   4.123  1.5871 -1.6305  0.4601
 3740SOL     OW18218   4.610   1.726   4.784  0.2170 -0.0127 -0.3200
 3740SOL    HW118219   4.639   1.761   4.695  1.0473 -0.2301 -0.1338
 3740SOL    HW218220   4.594   1.802   4.847 -0.8540  0.1686 -0.7950
 3741SOL     OW18221   4.294   6.090   2.834  0.1523  0.1105  0.1468
 3741SOL    HW118222   4.285   6.079   2.933  0.9795  2.7151  0.5481
 3741SOL    HW218223   4.334   6.179   2.813 -1.2907  0.1947 -2.5988
 3742SOL     OW18224   5.541   1.843   3.974  0.0752  0.1339  0.1177
 3742SOL    HW118225   5.547   1.860   4.073  0.0175 -1.9512  0.4914
 3742SOL    HW218226   5.631   1.814   3.940  0.2038  1.2662 -0.5360
 3743SOL     OW18227   4.757   2.763   0.975  0.0072  0.0517 -0.0622
 3743SOL    HW118228   4.797   2.679   1.013 -0.3817  0.2923  0.9136
 3743SOL    HW218229   4.819   2.840   0.992  1.1490 -0.3151 -2.4661
 3744SOL     OW18230   6.861   1.581   1.752  0.1021  0.2199  0.2674
 3744SOL    HW118231   6.869   1.563   1.850  1.1707 -2.5125 -0.2929
 3744SOL    HW218232   6.945   1.623   1.719  1.3508 -2.5553 -0.2085
 3745SOL     OW18233   1.423   2.448   1.452  0.2138  0.2190  0.3064
 3745SOL    HW118234   1.423   2.548   1.452 -0.7376  0.2251  0.0446
 3745SOL    HW218235   1.468   2.414   1.370 -2.6168  0.4733 -1.4447
 3746SOL     OW18236   6.500   4.457   0.277  0.1797 -0.0445  0.7356
 3746SOL    HW118237   6.538   4.447   0.185 -2.6247  1.6443 -0.6872
 3746SOL    HW218238   6.542   4.536   0.322  2.7980 -1.8741  1.6250
 3747SOL     OW18239   4.358   1.570   2.429 -0.3180 -0.1023 -0.0237
 3747SOL    HW118240   4.324   1.646   2.483 -0.7692  2.0048 -3.1641
 3747SOL    HW218241   4.457   1.566   2.435 -0.2860  0.8085  0.0657
 3748SOL     OW18242   6.410   7.075   3.410  0.0654 -0.0165 -0.1904
 3748SOL    HW118243   6.436   7.021   3.330  0.5938 -1.2989  0.8448
 3748SOL    HW218244   6.490   7.091   3.468 -0.5098  0.0553  0.5958
 3749SOL     OW18245   5.954   2.385   4.599 -0.2105 -0.8270 -0.0629
 3749SOL    HW118246   6.046   2.417   4.621  0.4945 -1.1182 -2.4505
 3749SOL    HW218247   5.918   2.332   4.675  1.5500 -0.5880  0.9620
 3750SOL     OW18248   0.767   3.583   0.766  0.2001 -0.0074  0.4873
 3750SOL    HW118249   0.794   3.533   0.684  0.0129 -1.6554  1.4000
 3750SOL    HW218250   0.786   3.527   0.847 -1.1586  0.9037  1.4637
 3751SOL     OW18251   6.078   2.414   4.326  0.1326 -0.2456 -0.3193
 3751SOL    HW118252   6.087   2.511   4.305  0.1801  0.2091  1.6455
 3751SOL    HW218253   6.018   2.403   4.406  0.4728 -1.7968 -0.2609
 3752SOL     OW18254   3.486   6.636   1.176 -0.3273  0.0606 -0.3287
 3752SOL    HW118255   3.503   6.550   1.130 -1.2604  0.3743 -1.2798
 3752SOL    HW218256   3.472   6.620   1.274 -2.6054 -1.1216 -0.8255
 3753SOL     OW18257   4.377   3.188   4.470  0.2762 -0.4697  0.4454
 3753SOL    HW118258   4.454   3.250   4.485  0.8601 -0.8533 -0.9743
 3753SOL    HW218259   4.301   3.238   4.429 -0.0350 -0.2172  1.3215
 3754SOL     OW18260   5.350   4.138   2.162  0.2809  0.7118  0.4545
 3754SOL    HW118261   5.382   4.206   2.227 -1.4678  0.4571  1.5935
 3754SOL    HW218262   5.351   4.047   2.204 -2.5387  0.7800  0.7605
 3755SOL     OW18263   6.123   3.837   0.441  0.3642  0.1762  0.2173
 3755SOL    HW118264   6.051   3.862   0.376 -0.4251 -1.5044  0.4105
 3755SOL    HW218265   6.204   3.807   0.390  0.3972  0.6058  0.0096
 3756SOL     OW18266   2.975   6.076   7.342 -0.4808  0.5181 -0.1421
 3756SOL    HW118267   2.956   6.174   7.339  1.2984  0.8861 -0.3221
 3756SOL    HW218268   2.928   6.035   7.420 -1.1047  1.5454  0.0310
 3757SOL     OW18269   0.718   4.163   4.048 -0.3458 -0.3410 -0.0596
 3757SOL    HW118270   0.681   4.078   4.009 -1.3550  0.8992 -1.9278
 3757SOL    HW218271   0.646   4.210   4.099  0.0545 -0.3252  0.4926
 3758SOL     OW18272   6.651   5.652   0.970  0.3523  0.3937  0.4016
 3758SOL    HW118273   6.675   5.670   1.065  1.5866 -0.7983  0.3241
 3758SOL    HW218274   6.643   5.553   0.956 -1.1157  0.6183 -0.4280
 3759SOL     OW18275   4.182   5.180   6.761 -0.2141 -0.2025  0.2645
 3759SOL    HW118276   4.230   5.213   6.680  2.3225  1.3102  2.3367
 3759SOL    HW218277   4.083   5.178   6.743  0.2362  1.0859 -2.4946
 3760SOL     OW18278   3.224   2.245   5.985 -0.2393 -0.4765  0.0065
 3760SOL    HW118279   3.155   2.251   6.057 -0.6742  1.6323 -0.5571
 3760SOL    HW218280   3.295   2.180   6.013  0.2200  1.1705  2.8754
 3761SOL     OW18281   6.420   1.983   1.183 -0.2461 -0.0598 -0.1469
 3761SOL    HW118282   6.322   1.977   1.168 -0.3190 -1.9507  0.8689
 3761SOL    HW218283   6.468   1.937   1.108 -0.0920  1.3738 -0.9481
 3762SOL     OW18284   4.694   2.333   0.158  0.1894 -0.0751  0.0518
 3762SOL    HW118285   4.641   2.249   0.155 -0.1595  0.1667 -0.7677
 3762SOL    HW218286   4.637   2.407   0.196 -0.0170  0.1438 -0.6676
 3763SOL     OW18287   2.041   0.372   0.049 -0.0460  0.0961  0.2212
 3763SOL    HW118288   1.962   0.398  -0.006 -0.8633  2.2759  2.3626
 3763SOL    HW218289   2.054   0.438   0.122  1.9293 -1.9206  1.7543
 3764SOL     OW18290   2.082   6.593   0.985 -0.6405 -0.7732  0.4787
 3764SOL    HW118291   2.059   6.655   0.910 -0.2564 -2.4749 -1.0891
 3764SOL    HW218292   2.180   6.599   1.004 -0.1009 -2.7841 -1.4741
 3765SOL     OW18293   5.073   2.060   1.353  0.6715 -0.3681  0.1401
 3765SOL    HW118294   5.119   2.097   1.272 -1.6333  1.0887 -0.5573
 3765SOL    HW218295   5.052   2.134   1.416  1.2517 -1.3228  1.4710
 3766SOL     OW18296   3.335   3.852   0.674  0.6553  0.0838  0.2228
 3766SOL    HW118297   3.380   3.770   0.638  0.4326 -0.1026  0.3665
 3766SOL    HW218298   3.402   3.925   0.683  0.4729  0.5076 -1.6876
 3767SOL     OW18299   3.530   6.181   0.958 -0.2222 -0.3300  0.1319
 3767SOL    HW118300   3.568   6.196   0.867  0.7433  1.9791  0.8869
 3767SOL    HW218301   3.432   6.162   0.950 -0.1116 -0.2983 -1.4086
 3768SOL     OW18302   0.363   4.445   1.189  0.2406 -0.3569 -0.7383
 3768SOL    HW118303   0.275   4.470   1.230  0.1746  1.1617 -1.7650
 3768SOL    HW218304   0.415   4.390   1.254 -2.0379 -2.5076 -0.6410
 3769SOL     OW18305   4.174   1.972   1.487 -0.1715 -0.8999 -0.3618
 3769SOL    HW118306   4.192   2.066   1.461  2.1562  0.0308  4.1262
 3769SOL    HW218307   4.204   1.910   1.415  3.1112  1.5919 -1.2041
 3770SOL     OW18308   3.939   3.922   0.913 -0.0905  0.2467  0.1243
 3770SOL    HW118309   3.952   3.823   0.905 -1.1374 -0.0196  1.4977
 3770SOL    HW218310   3.853   3.940   0.961  0.4454  1.8183  0.5117
 3771SOL     OW18311   2.026   0.882   1.500  0.7235  0.1021 -0.1463
 3771SOL    HW118312   2.028   0.804   1.436 -0.6738 -0.0561 -0.0018
 3771SOL    HW218313   1.932   0.908   1.517  1.0225 -0.5508  2.7102
 3772SOL     OW18314   1.782   5.552   6.020 -0.1625  0.6747  0.3168
 3772SOL    HW118315   1.682   5.555   6.025 -0.3381 -0.4714 -1.8419
 3772SOL    HW218316   1.814   5.622   5.956  0.2108 -0.5335 -0.8598
 3773SOL     OW18317   2.319   0.326   1.953 -0.1001  0.0621 -0.0612
 3773SOL    HW118318   2.229   0.367   1.944 -0.3348 -0.1360  1.2616
 3773SOL    HW218319   2.345   0.325   2.050  0.8829 -0.8129 -0.3318
 3774SOL     OW18320   1.837   3.347   4.409 -0.2797  0.3984 -0.3038
 3774SOL    HW118321   1.795   3.260   4.436 -0.4075  0.6729  0.3799
 3774SOL    HW218322   1.770   3.402   4.360 -0.4355  0.4455 -0.0372
 3775SOL     OW18323   4.633   1.681   4.040  0.1183 -0.1413 -0.1664
 3775SOL    HW118324   4.670   1.588   4.040  1.9461  0.5313 -3.2049
 3775SOL    HW218325   4.698   1.744   3.998 -2.3058  2.0006 -0.9028
 3776SOL     OW18326   2.199   2.741   0.185 -0.2195 -0.2620  0.4376
 3776SOL    HW118327   2.275   2.802   0.209 -1.0475 -0.2727  3.2642
 3776SOL    HW218328   2.159   2.770   0.098  0.0828  2.5735  1.2002
 3777SOL     OW18329   4.875   6.957   1.314  0.6765  0.2153 -0.2544
 3777SOL    HW118330   4.964   6.945   1.359  1.0257 -0.4912 -1.1185
 3777SOL    HW218331   4.807   6.900   1.360  0.2583  2.0832  1.5204
 3778SOL     OW18332   6.052   4.941   1.057 -0.6656  0.1856  0.0209
 3778SOL    HW118333   6.065   5.022   1.114 -2.0815  1.0889 -0.9268
 3778SOL    HW218334   6.039   4.968   0.962  2.0778 -1.3291 -0.8539
 3779SOL     OW18335   5.330   6.155   6.255 -0.6927 -0.3232  0.0232
 3779SOL    HW118336   5.248   6.157   6.197 -0.1428 -0.3838 -0.7711
 3779SOL    HW218337   5.305   6.125   6.347 -1.7880  1.0176  0.1744
 3780SOL     OW18338   3.782   7.085   6.353  0.0145  0.4061 -0.0204
 3780SOL    HW118339   3.711   7.153   6.374  0.7876  0.7381  1.5806
 3780SOL    HW218340   3.772   7.007   6.415  1.0469  0.4580  0.2188
 3781SOL     OW18341   3.617   4.414   6.596  0.0258 -0.5649  0.0690
 3781SOL    HW118342   3.555   4.393   6.520  2.0966  0.6407 -1.9993
 3781SOL    HW218343   3.663   4.330   6.626 -0.2332 -0.9143 -0.4987
 3782SOL     OW18344   3.200   4.290   0.019 -0.6184 -0.2505 -0.4478
 3782SOL    HW118345   3.223   4.211   0.076  0.7900  1.1089  0.9176
 3782SOL    HW218346   3.282   4.323  -0.027 -0.8631  1.4042  0.2727
 3783SOL     OW18347   6.850   4.391   7.105  0.2974 -0.0619  0.0339
 3783SOL    HW118348   6.882   4.360   7.016  0.9970 -1.2589  0.6983
 3783SOL    HW218349   6.915   4.364   7.176  1.3288  3.5708  0.5711
 3784SOL     OW18350   5.867   3.387   0.471 -0.2354  0.3948  0.3497
 3784SOL    HW118351   5.917   3.310   0.432 -2.2773 -0.6153 -0.3221
 3784SOL    HW218352   5.799   3.354   0.537 -1.9647  1.4870 -0.8444
 3785SOL     OW18353   6.413   6.589   6.381 -0.6075 -0.2352 -0.0389
 3785SOL    HW118354   6.364   6.671   6.352 -4.0204 -1.9791  0.5455
 3785SOL    HW218355   6.426   6.528   6.303 -2.1983 -1.1468  0.3847
 3786SOL     OW18356   6.951   0.845   6.492 -0.0663 -0.2011 -0.0977
 3786SOL    HW118357   6.887   0.777   6.526 -0.3074  0.7962  1.5107
 3786SOL    HW218358   6.902   0.915   6.439 -0.4789  1.0299  1.8497
 3787SOL     OW18359   6.360   0.258   5.669  0.4986 -0.0272 -0.0167
 3787SOL    HW118360   6.356   0.301   5.759  1.1447  0.5850 -0.2782
 3787SOL    HW218361   6.381   0.327   5.599 -0.2696 -0.4475 -0.6761
 3788SOL     OW18362   3.125   4.914   7.221 -0.0566  0.1214 -0.0067
 3788SOL    HW118363   3.214   4.908   7.266  1.6798 -1.2203 -3.4303
 3788SOL    HW218364   3.113   5.007   7.185  0.5058 -0.0091 -0.5515
 3789SOL     OW18365   4.889   5.682   2.298 -0.1115 -0.6368  0.0036
 3789SOL    HW118366   4.939   5.596   2.312 -1.5552 -1.6641 -1.0686
 3789SOL    HW218367   4.944   5.744   2.242 -0.0077 -1.7201 -1.0986
 3790SOL     OW18368   5.451   0.337   1.896  0.1457 -0.6303  0.0951
 3790SOL    HW118369   5.429   0.369   1.804  1.3232  0.0664  0.0482
 3790SOL    HW218370   5.437   0.412   1.962  2.0843 -0.2317  0.0942
 3791SOL     OW18371   0.503   6.526   4.146  0.0842 -0.4461 -0.3443
 3791SOL    HW118372   0.536   6.475   4.066 -0.0036  1.0589 -1.3600
 3791SOL    HW218373   0.406   6.509   4.160  0.0662 -0.5859 -0.6491
 3792SOL     OW18374   5.689   4.914   3.447  0.3407 -0.4970 -0.3306
 3792SOL    HW118375   5.663   4.967   3.367  0.4137  2.0049  1.2558
 3792SOL    HW218376   5.625   4.932   3.522  2.4055  0.0942  1.3354
 3793SOL     OW18377   6.582   4.732   3.762 -0.0187  0.1259  0.3906
 3793SOL    HW118378   6.568   4.686   3.674  2.0456  0.0530  0.0596
 3793SOL    HW218379   6.531   4.818   3.763 -0.8745 -0.3599 -0.4811
 3794SOL     OW18380   5.583   5.272   5.186  0.5871 -0.0794  0.4943
 3794SOL    HW118381   5.610   5.350   5.130  0.3798  0.2998  0.9188
 3794SOL    HW218382   5.495   5.290   5.229  1.0445 -0.0926  1.4624
 3795SOL     OW18383   0.346   5.857   5.816 -0.0605 -0.3017 -0.1652
 3795SOL    HW118384   0.428   5.809   5.785  1.8560  2.3081  0.7006
 3795SOL    HW218385   0.346   5.950   5.779 -0.6324  0.9977  2.9409
 3796SOL     OW18386   2.654   6.433   1.729  0.1588 -0.3801 -0.0266
 3796SOL    HW118387   2.614   6.405   1.816 -0.6804  0.6811 -0.0528
 3796SOL    HW218388   2.581   6.457   1.665  0.7829  2.1862  0.1371
 3797SOL     OW18389   5.992   1.976   2.182 -0.0432 -0.2492  0.3790
 3797SOL    HW118390   5.919   1.919   2.218  1.8197 -1.2387  2.7619
 3797SOL    HW218391   5.961   2.071   2.175 -2.1914 -1.0121 -0.6968
 3798SOL     OW18392   3.404   2.293   4.381  0.3687 -0.6413  0.5199
 3798SOL    HW118393   3.345   2.330   4.309  1.8100  2.1675  0.7466
 3798SOL    HW218394   3.436   2.202   4.353  0.2411  0.0521 -2.0162
 3799SOL     OW18395   4.608   1.140   5.320  0.1239  0.1350  0.5120
 3799SOL    HW118396   4.664   1.101   5.394 -0.1912 -0.2103  0.5658
 3799SOL    HW218397   4.524   1.087   5.310 -0.2055  0.6682  0.4393
 3800SOL     OW18398   6.583   0.844   1.829 -0.0808 -0.2815 -0.8361
 3800SOL    HW118399   6.600   0.932   1.785  0.2748  0.1076  0.0654
 3800SOL    HW218400   6.500   0.850   1.885  1.2661  0.2061  1.1426
 3801SOL     OW18401   2.928   5.966   6.628 -0.0781  0.1147 -0.0243
 3801SOL    HW118402   2.967   5.910   6.555  0.8619 -1.3472  1.5729
 3801SOL    HW218403   2.839   5.929   6.655 -0.3701  0.5821 -0.3401
 3802SOL     OW18404   2.793   6.383   3.323 -0.2274 -0.4387 -0.1981
 3802SOL    HW118405   2.773   6.471   3.367  1.1515 -0.8391  1.2648
 3802SOL    HW218406   2.841   6.400   3.237 -0.6029  0.2585 -0.2773
 3803SOL     OW18407   5.542   2.494   5.278  0.2271  0.2107 -0.2846
 3803SOL    HW118408   5.550   2.485   5.377  0.8626 -0.6752 -0.4107
 3803SOL    HW218409   5.621   2.451   5.234  0.3631  1.3170 -1.1451
 3804SOL     OW18410   0.608   1.569   1.911 -0.3044  0.1718  0.0163
 3804SOL    HW118411   0.528   1.597   1.965 -1.0662 -0.3707 -0.8183
 3804SOL    HW218412   0.685   1.629   1.932 -1.0126  0.8819  0.6116
 3805SOL     OW18413   0.932   1.581   1.169  0.4658  0.1187  0.1248
 3805SOL    HW118414   0.950   1.579   1.267 -1.7532  0.2419  0.5673
 3805SOL    HW218415   1.017   1.600   1.119  2.1416 -2.5350  1.8551
 3806SOL     OW18416   7.262   1.093   2.220  0.4232 -0.4288 -0.2202
 3806SOL    HW118417   7.210   1.012   2.247 -0.9711  0.0208 -1.4880
 3806SOL    HW218418   7.288   1.145   2.301  2.0086 -2.5266  0.6711
 3807SOL     OW18419   6.050   7.082   5.267 -0.1292  0.6145 -0.5213
 3807SOL    HW118420   5.982   7.119   5.203 -1.0199  0.1170  0.1218
 3807SOL    HW218421   6.129   7.143   5.271 -0.5832  1.2628 -1.1892
 3808SOL     OW18422   1.837   1.705   6.943  0.5181  0.0268  0.5351
 3808SOL    HW118423   1.842   1.661   6.853  3.7395  0.2041  0.5726
 3808SOL    HW218424   1.835   1.635   7.014  0.6490 -0.0975  0.4165
 3809SOL     OW18425   3.708   2.227   2.354  0.1499  0.4207 -0.0579
 3809SOL    HW118426   3.761   2.172   2.290  2.0189 -2.1375  3.5174
 3809SOL    HW218427   3.650   2.168   2.410  0.1835  2.3337  2.0826
 3810SOL     OW18428   4.516   4.459   2.987  0.1044 -0.1665  0.5002
 3810SOL    HW118429   4.422   4.483   3.012  0.0260  0.0325  0.0079
 3810SOL    HW218430   4.521   4.439   2.889  0.8349  1.0905  0.2671
 3811SOL     OW18431   5.554   4.161   4.470 -0.8422  0.1729  0.4383
 3811SOL    HW118432   5.548   4.226   4.545  0.2554  0.2127  0.4954
 3811SOL    HW218433   5.567   4.211   4.384  0.2389  0.0234  0.5121
 3812SOL     OW18434   5.348   1.774   5.656  0.2498 -0.4347 -0.5154
 3812SOL    HW118435   5.319   1.850   5.714  0.7400 -0.0635 -0.7512
 3812SOL    HW218436   5.305   1.782   5.567 -1.5891 -1.7670  0.2321
 3813SOL     OW18437   3.226   4.006   4.921 -0.1114 -0.0553  0.0055
 3813SOL    HW118438   3.240   4.104   4.907 -0.5452  0.1030  0.6785
 3813SOL    HW218439   3.204   3.988   5.017 -1.1149 -0.6854 -0.3267
 3814SOL     OW18440   3.752   6.146   7.017  0.0394 -0.1921 -0.2164
 3814SOL    HW118441   3.798   6.211   7.078 -2.2437  0.4367  0.8562
 3814SOL    HW218442   3.812   6.067   7.003  1.4477  0.5926  1.1944
 3815SOL     OW18443   4.107   0.519   2.525 -0.6356 -0.4726  0.1195
 3815SOL    HW118444   4.025   0.499   2.472 -0.6960 -1.2841  0.5083
 3815SOL    HW218445   4.113   0.617   2.541 -0.4695 -0.1888 -1.6140
 3816SOL     OW18446   0.563   5.498   6.185 -0.3664 -0.2456 -0.3131
 3816SOL    HW118447   0.500   5.527   6.258 -0.0780  0.0949 -0.1964
 3816SOL    HW218448   0.538   5.407   6.153  0.2981 -0.9348  1.1035
 3817SOL     OW18449   1.163   7.147   6.132  0.3400 -0.8728 -0.3135
 3817SOL    HW118450   1.224   7.069   6.121  0.6379 -0.3825 -2.3849
 3817SOL    HW218451   1.076   7.128   6.086  0.2409 -0.1599 -0.4295
 3818SOL     OW18452   2.612   4.927   0.307 -0.0408  0.1296 -0.9684
 3818SOL    HW118453   2.663   5.012   0.322  1.2998 -0.8853  0.3509
 3818SOL    HW218454   2.615   4.903   0.210  1.7592  0.2529 -0.9694
 3819SOL     OW18455   1.150   0.069   4.058 -0.6131  0.4175  0.1589
 3819SOL    HW118456   1.096   0.044   4.139 -0.0387  0.6924  0.6364
 3819SOL    HW218457   1.238   0.106   4.088 -0.3885  0.4947 -0.6004
 3820SOL     OW18458   4.985   5.019   4.953 -0.2612  0.1008 -0.1425
 3820SOL    HW118459   5.030   5.070   4.880  0.5401 -0.4666 -0.0435
 3820SOL    HW218460   4.888   5.006   4.930  0.0167 -0.1811 -1.1591
 3821SOL     OW18461   7.078   0.982   6.692 -0.4253 -0.0274  0.1235
 3821SOL    HW118462   7.020   0.926   6.633 -0.9244  1.0911 -0.4635
 3821SOL    HW218463   7.171   0.945   6.691 -0.8616 -1.1653  0.1827
 3822SOL     OW18464   2.869   4.074   0.877 -0.1348  0.7461  0.8748
 3822SOL    HW118465   2.835   4.159   0.918  0.2794  0.4731  1.8003
 3822SOL    HW218466   2.874   4.003   0.947  1.1856  0.4485  0.4998
 3823SOL     OW18467   2.736   0.073   1.260  0.3866  0.0731 -0.1091
 3823SOL    HW118468   2.655   0.085   1.203 -1.5482  0.1340  2.5411
 3823SOL    HW218469   2.769   0.163   1.289 -0.7376 -0.0481  1.6399
 3824SOL     OW18470   0.674   3.675   5.843 -0.0573 -0.4414  0.1239
 3824SOL    HW118471   0.690   3.581   5.812 -2.0112 -0.0623 -2.1736
 3824SOL    HW218472   0.754   3.730   5.823 -0.1367 -0.9007 -1.5820
 3825SOL     OW18473   3.435   7.126   6.726 -0.4669  0.0742 -0.0579
 3825SOL    HW118474   3.393   7.193   6.787 -0.7854  1.1199 -1.4062
 3825SOL    HW218475   3.529   7.154   6.707 -0.6296  0.1968 -0.6939
 3826SOL     OW18476   0.001   7.351   6.333  0.0790  0.4767  0.2058
 3826SOL    HW118477  -0.082   7.359   6.278  0.9395  1.5228 -0.9774
 3826SOL    HW218478   0.066   7.422   6.306  2.0259 -1.3436 -0.0475
 3827SOL     OW18479   0.821   4.002   4.779  0.4407 -0.3557  0.3710
 3827SOL    HW118480   0.855   4.087   4.820 -1.0754  0.4164  0.0500
 3827SOL    HW218481   0.853   3.924   4.834 -1.8546  0.6726  3.3520
 3828SOL     OW18482   3.672   7.155   4.773 -0.2534 -0.3835 -0.1494
 3828SOL    HW118483   3.717   7.094   4.708  0.0726 -0.3644  0.0570
 3828SOL    HW218484   3.736   7.228   4.799 -0.2441 -0.6219  0.5046
 3829SOL     OW18485   0.945   7.192   3.794 -1.0683  0.4460  0.3904
 3829SOL    HW118486   0.933   7.144   3.707 -1.0463 -0.1436  0.7060
 3829SOL    HW218487   0.873   7.166   3.857 -0.9254  0.6565  0.6442
 3830SOL     OW18488   6.465   1.648   1.488  0.3294 -0.0840 -0.4107
 3830SOL    HW118489   6.367   1.641   1.470 -0.2570  0.9666  2.1397
 3830SOL    HW218490   6.501   1.731   1.447 -0.1338  0.2052 -0.2382
 3831SOL     OW18491   4.021   4.328   4.681 -0.2174  0.6755 -0.2884
 3831SOL    HW118492   3.933   4.292   4.711 -0.1784  0.4954 -0.3905
 3831SOL    HW218493   4.028   4.321   4.581  0.5430 -0.7412 -0.1421
 3832SOL     OW18494   4.935   7.168   6.687  0.4380  0.0975 -0.4886
 3832SOL    HW118495   4.842   7.155   6.654 -0.1097  2.4381  0.1053
 3832SOL    HW218496   4.972   7.254   6.652  0.7240  1.4527  2.9438
 3833SOL     OW18497   4.948   2.645   2.139  0.5304  1.0456  0.1874
 3833SOL    HW118498   4.935   2.649   2.238  0.4862  1.2019  0.1753
 3833SOL    HW218499   4.991   2.730   2.107  2.3124  0.2233  0.3317
 3834SOL     OW18500   6.679   7.065   0.820 -0.3887 -0.6362  0.2983
 3834SOL    HW118501   6.608   7.022   0.876 -1.0173 -0.6703 -0.5031
 3834SOL    HW218502   6.715   6.997   0.755  1.3246 -0.9907  1.5815
 3835SOL     OW18503   2.358   1.372   1.150  0.3599 -0.5415  0.2955
 3835SOL    HW118504   2.381   1.431   1.228 -1.1395 -0.3809  0.6328
 3835SOL    HW218505   2.296   1.300   1.180  1.7217 -1.9837 -0.2427
 3836SOL     OW18506   6.386   4.676   0.933  0.0293 -0.0289  0.1241
 3836SOL    HW118507   6.372   4.766   0.891 -1.8271 -0.5778 -0.5013
 3836SOL    HW218508   6.406   4.609   0.862  1.0094 -0.1964  0.5501
 3837SOL     OW18509   1.773   0.216   5.755  0.7408  0.3153  0.1954
 3837SOL    HW118510   1.731   0.147   5.814 -0.0027  1.7195  1.3500
 3837SOL    HW218511   1.783   0.179   5.663 -1.2851 -0.7215  0.3542
 3838SOL     OW18512   0.943   1.179   0.718  0.2417 -0.2585 -0.1775
 3838SOL    HW118513   0.958   1.233   0.801 -1.4131 -0.0010 -0.0255
 3838SOL    HW218514   0.977   1.229   0.639  0.1259  0.3195  0.1363
 3839SOL     OW18515   1.637   4.726   5.110 -0.1001 -0.1111 -0.2938
 3839SOL    HW118516   1.656   4.746   5.206  2.2059 -1.4104 -0.4459
 3839SOL    HW218517   1.698   4.781   5.052  0.8817 -1.7950 -0.9003
 3840SOL     OW18518   6.909   0.029   6.696  0.9224 -0.3584  0.4677
 3840SOL    HW118519   6.938  -0.014   6.782  1.7452 -0.6530  0.0476
 3840SOL    HW218520   6.976   0.099   6.670  0.3430  0.1709  0.3907
 3841SOL     OW18521   4.234   6.346   3.032  0.4552 -0.3991 -0.4082
 3841SOL    HW118522   4.299   6.354   3.108  0.2337 -2.7434  0.0608
 3841SOL    HW218523   4.160   6.283   3.058 -1.3801  1.2832 -1.3831
 3842SOL     OW18524   3.966   4.831   6.101 -0.4507  0.1541  0.1815
 3842SOL    HW118525   3.982   4.812   6.004 -0.9773  1.0708 -0.0941
 3842SOL    HW218526   3.983   4.748   6.155  0.9644 -0.0524 -0.5621
 3843SOL     OW18527   6.055   6.637   3.785 -0.0840 -0.1149 -0.3195
 3843SOL    HW118528   5.984   6.585   3.739 -0.5835 -0.3317  0.6968
 3843SOL    HW218529   6.110   6.577   3.843  0.5416  0.1559 -0.6201
 3844SOL     OW18530   4.178   5.354   6.099 -0.1174 -0.0449 -0.1465
 3844SOL    HW118531   4.208   5.411   6.175  1.1372  1.4674 -1.7143
 3844SOL    HW218532   4.157   5.262   6.132  0.6320  0.5124  1.9697
 3845SOL     OW18533   0.403   0.900   5.885  0.8817 -0.1915  0.4745
 3845SOL    HW118534   0.491   0.946   5.898 -0.0912  1.8178  0.0501
 3845SOL    HW218535   0.368   0.871   5.974  1.9897 -1.0793  0.6414
 3846SOL     OW18536   0.430   2.190   0.446  0.3805 -0.8514 -0.0616
 3846SOL    HW118537   0.515   2.203   0.498  0.2813 -2.1954  0.4480
 3846SOL    HW218538   0.375   2.274   0.451  1.5117 -0.0953 -0.0951
 3847SOL     OW18539   6.374   3.750   3.565  0.2807  0.0855  0.8087
 3847SOL    HW118540   6.402   3.734   3.660 -2.6500  1.4681  1.9645
 3847SOL    HW218541   6.313   3.677   3.536 -0.7415  0.9349  0.8129
 3848SOL     OW18542   6.343   6.456   3.414  0.0541  0.0077 -0.6126
 3848SOL    HW118543   6.248   6.424   3.418 -0.8964  2.6096 -0.9747
 3848SOL    HW218544   6.366   6.502   3.500  0.7099  0.1234 -0.8482
 3849SOL     OW18545   5.618   1.945   5.303  0.1492 -0.0209 -0.0996
 3849SOL    HW118546   5.694   1.884   5.280 -0.0206 -0.1261 -0.3890
 3849SOL    HW218547   5.600   1.940   5.401  0.3023 -0.2457 -0.0814
 3850SOL     OW18548   5.087   5.223   6.026 -0.2807  0.0332 -0.9086
 3850SOL    HW118549   5.178   5.187   6.044 -0.4245  0.3725  0.5824
 3850SOL    HW218550   5.020   5.174   6.083 -0.8720  0.5935 -1.1109
 3851SOL     OW18551   5.700   4.645   1.342  0.4229 -0.4901  0.0131
 3851SOL    HW118552   5.795   4.656   1.313  0.5148 -1.3255  0.0041
 3851SOL    HW218553   5.697   4.611   1.435  0.1315 -0.5799 -0.0292
 3852SOL     OW18554   2.298   1.339   6.415 -0.0097 -0.2684 -0.3943
 3852SOL    HW118555   2.294   1.339   6.315 -1.8230 -0.8942 -0.3492
 3852SOL    HW218556   2.250   1.258   6.450 -1.1092  0.9509  1.0230
 3853SOL     OW18557   1.443   0.762   6.721  0.2576  0.4050  0.1392
 3853SOL    HW118558   1.348   0.757   6.689  0.6629 -0.7678 -0.9195
 3853SOL    HW218559   1.447   0.816   6.805 -1.6819 -1.3575  1.4146
 3854SOL     OW18560   4.083   0.697   0.455 -0.7588  0.4833  0.7759
 3854SOL    HW118561   4.130   0.732   0.536 -0.8278  1.0605  0.5658
 3854SOL    HW218562   4.052   0.603   0.472  0.5512  0.0603  0.8814
 3855SOL     OW18563   1.709   4.809   5.357 -0.5794 -0.0288  0.4957
 3855SOL    HW118564   1.783   4.869   5.327 -1.3264  1.4485  1.5708
 3855SOL    HW218565   1.730   4.774   5.448 -0.6744 -0.5261  0.3304
 3856SOL     OW18566   0.165   6.394   6.719 -0.1981  0.1915 -0.2631
 3856SOL    HW118567   0.086   6.453   6.704 -1.3682 -1.0331  0.9353
 3856SOL    HW218568   0.181   6.383   6.817  0.3742 -0.9908 -0.4791
 3857SOL     OW18569   6.401   6.275   4.580 -0.4589 -0.3800  0.5862
 3857SOL    HW118570   6.371   6.355   4.528 -1.2508 -0.4509  0.9244
 3857SOL    HW218571   6.330   6.204   4.575  0.3507 -1.1646  0.0606
 3858SOL     OW18572   2.145   6.325   3.118  0.0145 -0.1150  0.3677
 3858SOL    HW118573   2.081   6.314   3.041  0.8450 -0.8499 -0.2401
 3858SOL    HW218574   2.156   6.422   3.139  1.9103  0.3004 -2.2968
 3859SOL     OW18575   7.205   4.633   0.034 -0.1821  0.2987 -0.1084
 3859SOL    HW118576   7.230   4.667   0.125 -0.1393 -0.7818  0.2916
 3859SOL    HW218577   7.234   4.699  -0.035 -1.3546  1.7322  0.7358
 3860SOL     OW18578   0.331   2.678   0.003  0.0922 -0.2732 -0.0109
 3860SOL    HW118579   0.395   2.732   0.058  0.2240 -2.4328  2.0446
 3860SOL    HW218580   0.242   2.678   0.047  0.2205 -2.1041  0.2803
 3861SOL     OW18581   1.737   7.029   5.871  0.0455 -0.1776 -0.4344
 3861SOL    HW118582   1.831   6.999   5.883 -0.1963 -1.5825 -1.8478
 3861SOL    HW218583   1.677   6.949   5.862 -1.5930  0.6392  2.4513
 3862SOL     OW18584   5.682   1.995   2.677 -0.2345 -0.5986  0.0238
 3862SOL    HW118585   5.629   2.057   2.618  1.8073  0.3765 -0.8236
 3862SOL    HW218586   5.775   1.987   2.642  0.2976 -2.0330  1.6985
 3863SOL     OW18587   7.137   4.047   3.717  0.2727 -0.5304 -0.2435
 3863SOL    HW118588   7.115   4.087   3.806 -0.5998  1.0045 -1.1108
 3863SOL    HW218589   7.093   3.958   3.708 -0.7738 -0.0804  0.3380
 3864SOL     OW18590   4.846   6.865   4.982  0.0305  0.5507  0.0314
 3864SOL    HW118591   4.770   6.909   4.933  0.5721  1.3339 -0.0987
 3864SOL    HW218592   4.811   6.823   5.065 -0.8279 -0.4370 -0.8083
 3865SOL     OW18593   2.705   4.917   3.786  0.0218 -0.2642  0.2648
 3865SOL    HW118594   2.768   4.950   3.856 -0.1123  0.1501  0.1903
 3865SOL    HW218595   2.618   4.894   3.828  0.1084 -0.5111  0.3133
 3866SOL     OW18596   1.243   4.648   1.030  0.3863 -0.2859 -0.0937
 3866SOL    HW118597   1.270   4.678   1.122  1.4547 -0.7249 -0.2538
 3866SOL    HW218598   1.288   4.561   1.009 -2.1311 -1.6717  0.0914
 3867SOL     OW18599   3.836   6.343   1.793  0.2041  0.7529 -0.3736
 3867SOL    HW118600   3.749   6.368   1.750 -1.0272 -0.6437  1.2250
 3867SOL    HW218601   3.842   6.243   1.800  1.0591  0.8944  1.2532
 3868SOL     OW18602   3.784   0.218   5.393 -0.1802  0.6480  0.3108
 3868SOL    HW118603   3.839   0.221   5.476 -1.2841  0.0951  1.0788
 3868SOL    HW218604   3.761   0.123   5.372  0.6443  0.7168 -1.0136
 3869SOL     OW18605   6.131   2.119   2.407 -0.0590 -0.5182  0.2005
 3869SOL    HW118606   6.090   2.101   2.318 -1.6039  0.8059  0.6145
 3869SOL    HW218607   6.198   2.193   2.399  0.0426 -0.6259  0.0699
 3870SOL     OW18608   5.520   4.408   3.273 -0.1710 -0.8846  0.4763
 3870SOL    HW118609   5.493   4.499   3.306 -1.0132 -1.1171  0.4466
 3870SOL    HW218610   5.447   4.371   3.216  1.3033 -0.4354 -1.7747
 3871SOL     OW18611   5.390   2.009   6.070  0.1174  0.5592  1.1954
 3871SOL    HW118612   5.460   1.972   6.131  0.8012  0.8271  0.5778
 3871SOL    HW218613   5.430   2.031   5.981 -0.7040  0.9108  0.8967
 3872SOL     OW18614   2.423   0.737   0.088  0.0737  0.1048  0.2592
 3872SOL    HW118615   2.422   0.810   0.157  1.4427 -0.1396  0.5469
 3872SOL    HW218616   2.363   0.663   0.117  2.3097 -0.9746  2.2783
 3873SOL     OW18617   2.639   3.878   4.496  0.0653 -0.4388  0.1452
 3873SOL    HW118618   2.544   3.898   4.474  0.7764  2.2443 -0.6867
 3873SOL    HW218619   2.659   3.907   4.590  0.8582  2.1447 -0.7602
 3874SOL     OW18620   0.227   5.708   3.581 -0.4549 -0.3324  0.7000
 3874SOL    HW118621   0.206   5.792   3.531 -1.4776  0.7424  2.8360
 3874SOL    HW218622   0.173   5.632   3.544  0.2626  0.0027 -1.0586
 3875SOL     OW18623   2.706   6.999   5.645  0.2730 -0.0428 -0.2919
 3875SOL    HW118624   2.786   6.990   5.704 -0.2282 -3.9345 -0.1397
 3875SOL    HW218625   2.729   6.967   5.553 -0.8559 -0.2797 -0.4972
 3876SOL     OW18626   2.436   1.024   1.736  0.7104 -0.9246 -0.0326
 3876SOL    HW118627   2.450   1.032   1.835 -1.4250  1.1608  0.1255
 3876SOL    HW218628   2.339   1.014   1.716  0.9667  0.2074 -2.0151
 3877SOL     OW18629   6.851   5.330   6.064  0.1611 -0.3506 -0.2909
 3877SOL    HW118630   6.883   5.310   6.156 -1.3519 -1.4962 -0.0006
 3877SOL    HW218631   6.763   5.285   6.048 -0.7095  1.7296 -1.5018
 3878SOL     OW18632   7.286   0.500   5.091 -0.9097  0.4850  0.2943
 3878SOL    HW118633   7.242   0.416   5.123  0.8702 -0.4196  0.4304
 3878SOL    HW218634   7.217   0.560   5.050 -1.8562 -1.9988 -1.8657
 3879SOL     OW18635   5.862   1.661   6.493  0.5358  0.1055  0.0122
 3879SOL    HW118636   5.894   1.691   6.403  1.1094 -1.5853 -0.3740
 3879SOL    HW218637   5.913   1.579   6.520 -0.7840 -0.3482  1.1486
 3880SOL     OW18638   2.907   0.176   7.286  0.0902  0.4175  0.1032
 3880SOL    HW118639   2.864   0.094   7.322 -0.9449  0.7646 -0.3268
 3880SOL    HW218640   2.841   0.251   7.284  0.2245  0.5158 -2.0963
 3881SOL     OW18641   1.790   4.856   4.911 -0.3178  0.4004 -0.5114
 3881SOL    HW118642   1.872   4.823   4.865 -0.5186  0.5380 -0.9632
 3881SOL    HW218643   1.712   4.854   4.848 -0.7412 -0.0503  0.0139
 3882SOL     OW18644   4.785   1.661   4.316  0.2364 -0.1503  0.4761
 3882SOL    HW118645   4.879   1.641   4.288  0.1783  1.1821 -0.7496
 3882SOL    HW218646   4.727   1.673   4.235 -0.5253  1.1235  1.1817
 3883SOL     OW18647   6.061   5.542   6.511  0.3305 -0.5533 -0.4488
 3883SOL    HW118648   6.079   5.638   6.490 -2.4121  0.1407  0.2122
 3883SOL    HW218649   6.112   5.515   6.593 -0.8770  1.0832  0.8671
 3884SOL     OW18650   6.412   2.854   6.290  0.4820  0.0907 -0.4314
 3884SOL    HW118651   6.344   2.927   6.294 -0.1333 -0.5014 -0.0284
 3884SOL    HW218652   6.418   2.809   6.379  0.2894 -0.8642 -0.8954
 3885SOL     OW18653   2.721   0.997   5.648 -0.3329 -0.6842  0.5027
 3885SOL    HW118654   2.787   0.941   5.698  1.0035 -0.6044 -1.1087
 3885SOL    HW218655   2.760   1.022   5.559 -1.7945  0.9714  0.3096
 3886SOL     OW18656   2.749   2.174   6.079 -0.0375  0.6523 -0.0558
 3886SOL    HW118657   2.659   2.215   6.093 -0.0930  0.9702 -1.2777
 3886SOL    HW218658   2.741   2.095   6.018  0.4491  0.4239  0.1678
 3887SOL     OW18659   7.182   0.441   5.615  1.1433 -0.0988 -0.4340
 3887SOL    HW118660   7.090   0.422   5.581  0.7526  1.0346 -0.0172
 3887SOL    HW218661   7.244   0.453   5.538  0.6608  0.5273 -0.7293
 3888SOL     OW18662   4.751   1.074   0.967 -0.4119 -0.3812  0.4449
 3888SOL    HW118663   4.696   1.132   1.026 -0.5746 -0.2439  0.1592
 3888SOL    HW218664   4.784   1.128   0.889 -0.0548 -0.5170  0.5014
 3889SOL     OW18665   1.826   0.572   3.733  0.0523 -0.2631  0.2134
 3889SOL    HW118666   1.818   0.473   3.743  0.5226 -0.3144  0.0706
 3889SOL    HW218667   1.921   0.597   3.715 -0.3836 -0.0040 -1.9537
 3890SOL     OW18668   2.365   4.223   2.736  0.4569 -0.2366 -0.8954
 3890SOL    HW118669   2.326   4.180   2.817  1.0807  0.5453 -0.1714
 3890SOL    HW218670   2.457   4.189   2.720  0.6417  0.2143 -0.7994
 3891SOL     OW18671   4.346   5.650   5.092 -0.0603  0.2861  0.6596
 3891SOL    HW118672   4.414   5.718   5.063  1.2777 -1.3341 -0.0879
 3891SOL    HW218673   4.316   5.670   5.185  1.2510  1.1701  0.9016
 3892SOL     OW18674   5.969   5.041   0.805 -0.1723  0.2532  0.1538
 3892SOL    HW118675   5.921   4.975   0.746  1.1615 -1.0507  0.4775
 3892SOL    HW218676   6.050   5.074   0.757 -0.0201  0.5126  0.5938
 3893SOL     OW18677   6.883   3.749   3.950 -0.3996 -0.3605 -0.2615
 3893SOL    HW118678   6.958   3.758   3.885  0.1433 -0.1141  0.3852
 3893SOL    HW218679   6.882   3.656   3.987  0.3312 -0.0374  0.6021
 3894SOL     OW18680   5.693   1.303   3.190 -0.3982 -0.4938 -0.5981
 3894SOL    HW118681   5.639   1.235   3.141  0.3348  0.2441 -2.4479
 3894SOL    HW218682   5.752   1.257   3.257 -1.7800 -1.4578 -0.0137
 3895SOL     OW18683   3.235   1.238   2.602 -0.2783  0.4402  0.3444
 3895SOL    HW118684   3.324   1.266   2.568 -0.9629  2.0271 -0.1811
 3895SOL    HW218685   3.225   1.139   2.593  1.1260  0.3486 -0.2743
 3896SOL     OW18686   1.691   4.599   5.866 -0.3085  0.5904 -0.7202
 3896SOL    HW118687   1.784   4.588   5.899 -0.8421 -3.0645 -0.2884
 3896SOL    HW218688   1.689   4.669   5.794  2.5814  1.2687 -0.1888
 3897SOL     OW18689   7.232   5.021   3.026 -0.1124 -0.4132  0.5730
 3897SOL    HW118690   7.269   5.074   3.102  1.4162 -1.5553  0.6503
 3897SOL    HW218691   7.240   4.924   3.046  0.3755 -0.7254 -1.0790
 3898SOL     OW18692   7.021   2.305   5.049  0.7562 -0.4967 -0.7249
 3898SOL    HW118693   6.975   2.393   5.058  2.2935  0.3531 -1.0700
 3898SOL    HW218694   7.111   2.309   5.093  0.0870 -2.4717  0.9290
 3899SOL     OW18695   2.885   3.387   0.523 -0.0664  0.5219 -0.1468
 3899SOL    HW118696   2.852   3.320   0.589  0.4788  1.2113  0.8386
 3899SOL    HW218697   2.963   3.436   0.561 -0.1577  1.3927 -1.0500
 3900SOL     OW18698   5.516   0.754   3.503 -0.2374  0.0741 -0.1396
 3900SOL    HW118699   5.440   0.738   3.566 -1.8669  0.3929 -1.9442
 3900SOL    HW218700   5.529   0.673   3.445  0.1467  0.3769 -0.4805
 3901SOL     OW18701   0.068   3.002   5.582  0.6815 -0.2282  0.1637
 3901SOL    HW118702  -0.010   2.941   5.571  0.4666 -0.2464  1.7350
 3901SOL    HW218703   0.055   3.083   5.524 -0.2645 -0.4552  0.0532
 3902SOL     OW18704   3.722   2.656   1.154  0.3004 -0.7865 -0.3059
 3902SOL    HW118705   3.751   2.585   1.089 -1.0271  0.8476 -2.7808
 3902SOL    HW218706   3.626   2.678   1.137  0.6150  1.3909  0.6330
 3903SOL     OW18707   1.267   4.978   1.423  0.1974 -0.1159  0.0236
 3903SOL    HW118708   1.337   5.029   1.474  0.5980 -1.0088  0.3699
 3903SOL    HW218709   1.185   4.969   1.478 -0.3160  1.2181 -0.5076
 3904SOL     OW18710   4.016   1.435   0.589 -0.3469  0.2176 -0.1751
 3904SOL    HW118711   4.001   1.511   0.526  0.8624 -0.7592 -1.6751
 3904SOL    HW218712   3.941   1.369   0.581 -0.6105  0.4952  0.0093
 3905SOL     OW18713   6.148   1.380   1.571 -0.2481  0.1638  0.1549
 3905SOL    HW118714   6.049   1.368   1.575 -0.3495  0.7655 -0.4003
 3905SOL    HW218715   6.177   1.441   1.644 -0.0577 -1.3657  1.3867
 3906SOL     OW18716   2.421   1.474   2.823  0.4736  0.9615 -0.2798
 3906SOL    HW118717   2.433   1.565   2.863  0.6751  0.3857  0.9700
 3906SOL    HW218718   2.478   1.467   2.740  0.6621  1.8791 -0.2366
 3907SOL     OW18719   2.175   6.704   2.413 -0.0308  0.0181 -0.2710
 3907SOL    HW118720   2.238   6.630   2.388 -0.3289  0.1571 -1.4858
 3907SOL    HW218721   2.142   6.690   2.506 -0.4359 -1.6245 -0.6473
 3908SOL     OW18722   0.037   5.011   0.568  0.4632  0.4954  0.2204
 3908SOL    HW118723   0.077   5.065   0.643 -0.3787  0.6241  0.5860
 3908SOL    HW218724   0.011   5.072   0.494 -1.7974  0.7764  1.2213
 3909SOL     OW18725   5.143   5.151   1.615  0.1972  0.1943  0.2125
 3909SOL    HW118726   5.182   5.070   1.658  1.0907  0.6518  0.2714
 3909SOL    HW218727   5.180   5.160   1.522 -1.2036 -0.4149 -0.4269
 3910SOL     OW18728   6.864   4.762   3.875  0.1466 -0.1566 -0.3701
 3910SOL    HW118729   6.838   4.828   3.945  1.0794 -1.1787  0.9715
 3910SOL    HW218730   6.782   4.731   3.827 -0.7127 -0.5326  1.2779
 3911SOL     OW18731   0.056   1.158   7.114 -0.3729 -0.4421  0.0760
 3911SOL    HW118732   0.117   1.108   7.052 -2.2557 -0.4059 -1.8592
 3911SOL    HW218733   0.090   1.252   7.125 -0.8472  0.0049 -2.1308
 3912SOL     OW18734   1.226   1.200   3.247 -0.0613  0.0713 -1.1050
 3912SOL    HW118735   1.250   1.275   3.308  1.2790 -0.0658 -1.4620
 3912SOL    HW218736   1.304   1.139   3.235 -0.6191 -0.4600 -2.1605
 3913SOL     OW18737   6.867   1.808   5.155 -0.6412 -0.3233 -0.7340
 3913SOL    HW118738   6.786   1.829   5.100 -0.7263  1.3689 -0.0177
 3913SOL    HW218739   6.839   1.768   5.242 -0.8686  2.0618  0.3318
 3914SOL     OW18740   1.500   2.341   3.189  0.2698  0.0063 -0.0965
 3914SOL    HW118741   1.557   2.324   3.109 -1.2221 -2.3629 -0.7178
 3914SOL    HW218742   1.520   2.273   3.260 -1.3487 -0.5114 -0.1107
 3915SOL     OW18743   3.319   5.515   7.352  0.0514 -0.0601 -0.4937
 3915SOL    HW118744   3.374   5.490   7.273  0.2217  0.4519 -0.5346
 3915SOL    HW218745   3.297   5.612   7.349 -1.9942 -0.5194 -1.1842
 3916SOL     OW18746   4.888   5.107   0.599 -0.1779  0.5014  0.4627
 3916SOL    HW118747   4.861   5.011   0.607 -0.9088  0.8312  2.1670
 3916SOL    HW218748   4.809   5.162   0.572  0.1662  0.6831 -0.1962
 3917SOL     OW18749   3.386   2.520   3.798 -0.5478  0.3320 -0.2084
 3917SOL    HW118750   3.292   2.551   3.810 -0.7548 -1.2862  2.8906
 3917SOL    HW218751   3.388   2.421   3.789  0.8504  0.3791 -0.5582
 3918SOL     OW18752   5.682   1.722   4.659 -0.2058  0.6806 -0.4907
 3918SOL    HW118753   5.753   1.727   4.729  0.9505  1.2689 -1.6928
 3918SOL    HW218754   5.720   1.686   4.574 -1.5066  0.3579 -0.9526
 3919SOL     OW18755   5.931   6.953   5.590  0.0925  0.1531 -0.2115
 3919SOL    HW118756   5.880   6.874   5.554 -1.9483  0.5955  1.5760
 3919SOL    HW218757   6.025   6.925   5.610  0.2440 -1.0310 -2.3766
 3920SOL     OW18758   3.892   4.691   1.352 -0.6278 -0.4988 -0.4850
 3920SOL    HW118759   3.948   4.716   1.431 -0.8420  0.8238 -0.7493
 3920SOL    HW218760   3.929   4.608   1.309  0.3593 -0.3603  0.1079
 3921SOL     OW18761   1.453   2.650   7.332 -0.0654  0.1342 -0.1088
 3921SOL    HW118762   1.513   2.579   7.370 -0.5749 -1.0355 -1.4469
 3921SOL    HW218763   1.418   2.707   7.406  2.1686  0.4284  0.7585
 3922SOL     OW18764   2.370   4.267   5.239  0.4423 -0.5353 -0.2393
 3922SOL    HW118765   2.301   4.234   5.304  0.1966  0.3373 -0.0497
 3922SOL    HW218766   2.398   4.360   5.265  1.3644 -0.7160 -0.5754
 3923SOL     OW18767   0.397   4.835   3.484  0.1370  0.0590  0.0937
 3923SOL    HW118768   0.483   4.785   3.472  1.6501  2.9368 -1.7097
 3923SOL    HW218769   0.345   4.834   3.399 -0.1729  0.8817  0.2642
 3924SOL     OW18770   7.253   6.194   6.896 -0.7881 -0.6025  0.4373
 3924SOL    HW118771   7.206   6.232   6.816  0.3060  0.7631  0.4289
 3924SOL    HW218772   7.238   6.253   6.975  0.3831 -0.4921  0.5836
 3925SOL     OW18773   5.446   6.575   2.091  0.2117  0.6824  0.1102
 3925SOL    HW118774   5.502   6.569   2.009  1.2525 -0.2287  0.8677
 3925SOL    HW218775   5.505   6.580   2.172 -0.8003 -0.4219  0.9421
 3926SOL     OW18776   2.383   2.015   5.798 -0.0102 -0.5051 -0.5238
 3926SOL    HW118777   2.359   2.069   5.718 -0.8467  0.2753  0.2423
 3926SOL    HW218778   2.325   1.934   5.803  1.0200 -1.3128 -1.4912
 3927SOL     OW18779   1.830   2.809   4.531  0.1015  0.5299 -0.5268
 3927SOL    HW118780   1.908   2.802   4.593 -0.9076  0.3686  0.7385
 3927SOL    HW218781   1.830   2.731   4.469 -0.0209 -0.3893  0.6163
 3928SOL     OW18782   5.137   7.069   1.750  0.0847  0.2087 -0.2176
 3928SOL    HW118783   5.103   7.148   1.800 -1.3133  0.2976 -1.2936
 3928SOL    HW218784   5.136   7.088   1.652 -0.9081 -1.3838 -0.5325
 3929SOL     OW18785   4.755   5.631   5.618 -0.6503  0.6007 -0.1335
 3929SOL    HW118786   4.751   5.708   5.682 -1.4921  1.0891 -0.7508
 3929SOL    HW218787   4.676   5.636   5.555  0.5478  0.5366 -1.6722
 3930SOL     OW18788   3.628   5.433   6.755  0.3191  0.6190 -0.0800
 3930SOL    HW118789   3.668   5.455   6.844  1.4438  1.9360 -0.8872
 3930SOL    HW218790   3.627   5.515   6.698  1.2709 -0.6079 -1.9120
 3931SOL     OW18791   1.389   2.561   6.108 -0.4611  0.5598  0.4123
 3931SOL    HW118792   1.314   2.618   6.143 -1.8042 -0.7885 -0.2069
 3931SOL    HW218793   1.407   2.585   6.013  0.3741  1.3461  0.7563
 3932SOL     OW18794   0.284   4.663   5.408 -0.6756  0.1346 -0.3561
 3932SOL    HW118795   0.344   4.683   5.486 -0.6738  0.3347 -0.4097
 3932SOL    HW218796   0.328   4.692   5.323 -0.2614 -0.9592 -0.5323
 3933SOL     OW18797   5.868   6.802   5.034 -0.3438  0.1381 -0.0162
 3933SOL    HW118798   5.920   6.879   4.997 -0.0714 -0.0997 -0.1305
 3933SOL    HW218799   5.874   6.725   4.971  0.6054 -0.4625  0.7937
 3934SOL     OW18800   5.099   7.215   6.898 -0.3793  0.3244 -0.1170
 3934SOL    HW118801   5.038   7.185   6.824  1.2793  1.7716 -2.1016
 3934SOL    HW218802   5.194   7.206   6.869  0.4510 -2.0972  3.0198
 3935SOL     OW18803   4.329   2.340   5.692 -0.6583 -0.3835  0.4434
 3935SOL    HW118804   4.310   2.437   5.680  2.0530  0.1245  0.0211
 3935SOL    HW218805   4.253   2.286   5.654 -0.3459  1.4940 -2.9616
 3936SOL     OW18806   5.012   5.615   4.924  0.1603 -0.0800  0.1617
 3936SOL    HW118807   5.072   5.604   5.003 -0.5990 -0.3608  0.6993
 3936SOL    HW218808   5.068   5.629   4.842  0.9652 -0.3754  0.6535
 3937SOL     OW18809   0.645   5.343   2.345  0.0363  0.3808 -0.1809
 3937SOL    HW118810   0.704   5.423   2.360  0.3937  0.0973 -0.0590
 3937SOL    HW218811   0.670   5.300   2.259  1.1652 -0.7262  0.6701
 3938SOL     OW18812   1.414   5.342   6.870  0.4754  0.1622  0.1208
 3938SOL    HW118813   1.501   5.295   6.887 -0.6209 -0.2011  5.2717
 3938SOL    HW218814   1.339   5.276   6.872 -0.4453  1.2185  0.9675
 3939SOL     OW18815   2.690   0.613   0.082 -0.1341 -0.1403 -0.0098
 3939SOL    HW118816   2.600   0.653   0.068 -0.5373 -0.7927  0.7305
 3939SOL    HW218817   2.682   0.525   0.128  0.8468 -0.4552 -0.4062
 3940SOL     OW18818   5.115   4.632   5.371 -0.2343  0.0754 -0.0012
 3940SOL    HW118819   5.134   4.538   5.340 -0.6732  0.2115 -0.6898
 3940SOL    HW218820   5.081   4.686   5.294 -4.1803 -0.3681  1.3114
 3941SOL     OW18821   5.541   2.368   5.545 -0.2371 -0.2670 -0.6793
 3941SOL    HW118822   5.566   2.459   5.578  3.1269 -1.7933  1.2317
 3941SOL    HW218823   5.444   2.352   5.563 -0.2099  1.8592  1.5939
 3942SOL     OW18824   3.979   6.839   6.220  0.0635 -0.1062 -0.2636
 3942SOL    HW118825   3.919   6.889   6.157 -0.1837 -1.0719 -0.8099
 3942SOL    HW218826   4.009   6.754   6.176  0.1889 -0.6098  0.7908
 3943SOL     OW18827   2.773   2.904   4.749 -0.2073 -0.3361 -0.0956
 3943SOL    HW118828   2.855   2.946   4.787 -0.6878  0.7123 -0.2106
 3943SOL    HW218829   2.769   2.921   4.651  0.2400 -1.7256 -0.3596
 3944SOL     OW18830   4.798   0.946   3.420  0.0992 -0.2036  0.3583
 3944SOL    HW118831   4.835   0.937   3.512  0.5955  0.6938  0.2541
 3944SOL    HW218832   4.713   0.894   3.413  1.2892 -2.2208  0.6165
 3945SOL     OW18833   4.580   1.837   6.772  0.3817  0.1414  0.4948
 3945SOL    HW118834   4.627   1.884   6.697  0.5548 -0.9704 -0.1092
 3945SOL    HW218835   4.646   1.816   6.844  0.4775  0.0627  0.3843
 3946SOL     OW18836   3.734   3.154   3.799  0.0706 -0.3704  0.0992
 3946SOL    HW118837   3.722   3.249   3.768 -0.5651 -0.6710 -0.5836
 3946SOL    HW218838   3.811   3.150   3.863 -0.5075  0.7809  0.8915
 3947SOL     OW18839   5.661   0.917   1.244  0.1528 -0.4432  0.7834
 3947SOL    HW118840   5.750   0.904   1.287  0.6661 -1.8775 -0.6392
 3947SOL    HW218841   5.605   0.835   1.258 -0.0720 -0.4910 -0.2944
 3948SOL     OW18842   5.919   1.524   3.362  0.1823  0.1582  0.3417
 3948SOL    HW118843   5.863   1.476   3.294 -0.5661  0.0371  1.0198
 3948SOL    HW218844   5.900   1.622   3.358 -1.4685 -0.0625  1.7744
 3949SOL     OW18845   4.847   4.325   2.127 -0.5080 -0.0353 -0.0260
 3949SOL    HW118846   4.849   4.239   2.076 -1.4711 -0.3111  0.3909
 3949SOL    HW218847   4.896   4.396   2.076 -0.9425 -0.4657 -1.0563
 3950SOL     OW18848   1.533   1.536   0.022 -0.3690 -0.1146  0.2901
 3950SOL    HW118849   1.581   1.454   0.051 -1.7474 -2.0870 -2.8375
 3950SOL    HW218850   1.585   1.584  -0.048 -1.7228 -0.8843 -1.2700
 3951SOL     OW18851   4.929   5.159   1.297  0.0343 -0.3523 -0.4146
 3951SOL    HW118852   4.995   5.084   1.300  0.5503  0.1491  3.1498
 3951SOL    HW218853   4.974   5.243   1.265  0.2282 -0.7960 -1.3321
 3952SOL     OW18854   5.286   0.041   0.312 -0.1861  0.3212 -0.2225
 3952SOL    HW118855   5.209   0.103   0.315 -0.0773  0.3833  1.9675
 3952SOL    HW218856   5.264  -0.037   0.253 -1.9254  0.3231  0.3975
 3953SOL     OW18857   1.604   3.919   2.226  0.3162 -0.2296 -0.7885
 3953SOL    HW118858   1.513   3.953   2.202  0.6447 -0.0492 -1.8058
 3953SOL    HW218859   1.673   3.971   2.176  0.9593 -0.6284 -0.3221
 3954SOL     OW18860   1.559   1.633   3.673 -0.4473 -0.0882  0.6498
 3954SOL    HW118861   1.631   1.579   3.629 -1.8344 -1.8427  0.4390
 3954SOL    HW218862   1.487   1.651   3.606 -0.9180  0.2987  1.2655
 3955SOL     OW18863   7.039   6.070   6.333  0.0718  0.3540  0.3252
 3955SOL    HW118864   6.960   6.012   6.350 -0.4023  0.9123  0.0464
 3955SOL    HW218865   7.021   6.130   6.256  1.0261  0.0237 -0.1691
 3956SOL     OW18866   6.160   3.917   7.314  0.1706  0.2618  0.1973
 3956SOL    HW118867   6.117   3.839   7.358 -1.1148 -0.9086 -2.9517
 3956SOL    HW218868   6.192   3.982   7.383  0.4425 -2.5952  2.8236
 3957SOL     OW18869   4.422   0.164   2.663 -0.8114 -0.1665  0.6164
 3957SOL    HW118870   4.372   0.243   2.698 -0.3345  1.2250 -1.7196
 3957SOL    HW218871   4.367   0.081   2.676 -1.4871  0.5886  2.7277
 3958SOL     OW18872   3.209   3.045   4.508  0.8008  0.0113  0.5231
 3958SOL    HW118873   3.229   3.143   4.497 -0.7415  0.1359 -1.3174
 3958SOL    HW218874   3.289   2.991   4.480  1.1183  0.6936  0.0969
 3959SOL     OW18875   6.188   6.885   3.798  0.2756  0.3416 -0.4813
 3959SOL    HW118876   6.271   6.881   3.742  0.8911 -0.4178  0.4775
 3959SOL    HW218877   6.134   6.802   3.784 -0.0237  0.5593 -0.6339
 3960SOL     OW18878   4.728   4.327   2.345 -0.1425 -0.1436 -0.5967
 3960SOL    HW118879   4.782   4.315   2.261 -0.6535  1.6975 -1.2220
 3960SOL    HW218880   4.775   4.391   2.406 -0.4948 -0.3338 -0.1249
 3961SOL     OW18881   7.060   6.843   0.431 -0.0270  0.4570 -0.1523
 3961SOL    HW118882   7.022   6.850   0.523 -0.0006 -0.9490 -0.0288
 3961SOL    HW218883   6.992   6.805   0.370 -0.1270  1.6224 -0.7794
 3962SOL     OW18884   4.532   4.122   2.423 -0.2105 -0.4568 -0.2635
 3962SOL    HW118885   4.562   4.064   2.499  0.0374  0.9157  0.7168
 3962SOL    HW218886   4.603   4.189   2.403 -0.8456  0.0579 -0.7963
 3963SOL     OW18887   3.359   5.740   7.060 -0.5650 -0.0786 -0.3487
 3963SOL    HW118888   3.440   5.767   7.009 -0.4239  2.7077  1.2468
 3963SOL    HW218889   3.279   5.784   7.021 -0.2913  3.1276  2.4900
 3964SOL     OW18890   1.854   5.988   0.122 -0.5802 -0.3304  0.4222
 3964SOL    HW118891   1.765   6.012   0.083 -1.3165 -1.3439  1.4486
 3964SOL    HW218892   1.903   5.928   0.059 -0.2043  0.9860 -0.5721
 3965SOL     OW18893   3.547   3.216   1.078  0.2537 -0.4368 -0.5853
 3965SOL    HW118894   3.463   3.267   1.098  1.6845  1.3071  1.2130
 3965SOL    HW218895   3.534   3.120   1.103 -0.9776 -0.0344  0.3957
 3966SOL     OW18896   3.121   6.606   5.298  0.1433  0.6918  0.1872
 3966SOL    HW118897   3.117   6.619   5.397 -0.6831 -1.7579  0.5132
 3966SOL    HW218898   3.177   6.526   5.278 -1.3863 -0.0599 -1.1853
 3967SOL     OW18899   1.714   2.125   3.393 -0.3632 -0.0996 -0.3897
 3967SOL    HW118900   1.794   2.135   3.453  0.6232 -0.4238 -1.6183
 3967SOL    HW218901   1.743   2.086   3.306 -1.9688 -0.7212 -0.6615
 3968SOL     OW18902   3.311   6.414   5.224  0.2872  0.0428 -0.2174
 3968SOL    HW118903   3.364   6.464   5.156 -0.4977  0.8342 -0.2566
 3968SOL    HW218904   3.276   6.329   5.184  0.5173  0.1004 -0.5409
 3969SOL     OW18905   0.377   1.703   2.832 -0.0105 -0.4297 -0.4236
 3969SOL    HW118906   0.373   1.614   2.877 -0.1475 -0.1406  0.1493
 3969SOL    HW218907   0.353   1.694   2.736  1.9113 -1.3331 -0.8400
 3970SOL     OW18908   1.767   4.114   4.606  0.0798 -0.3808  0.1196
 3970SOL    HW118909   1.759   4.209   4.636  3.0311 -0.3514  0.9748
 3970SOL    HW218910   1.742   4.054   4.682 -1.8939 -0.3290 -0.4546
 3971SOL     OW18911   4.440   3.360   1.568  0.7719 -0.4457  0.2446
 3971SOL    HW118912   4.432   3.421   1.646 -1.0713 -0.7016  0.2999
 3971SOL    HW218913   4.351   3.316   1.551  1.7551 -2.2257 -0.4996
 3972SOL     OW18914   0.976   4.628   5.364  0.6717 -0.2550 -0.0072
 3972SOL    HW118915   0.900   4.613   5.427  0.2592  0.6990 -0.2698
 3972SOL    HW218916   1.059   4.647   5.416  0.3171  0.6056  0.2460
 3973SOL     OW18917   6.292   6.082   1.322  0.1287 -0.2669  0.1342
 3973SOL    HW118918   6.244   5.994   1.321  1.0521 -0.7631 -0.3412
 3973SOL    HW218919   6.299   6.117   1.228 -0.4371  0.4277  0.3446
 3974SOL     OW18920   0.169   1.454   7.070 -0.3641 -0.6480 -0.0753
 3974SOL    HW118921   0.082   1.491   7.102 -0.1253  0.9547 -1.2292
 3974SOL    HW218922   0.195   1.499   6.984  2.4696  0.1462  1.1450
 3975SOL     OW18923   5.614   4.015   2.791 -0.1650 -0.0809  0.4437
 3975SOL    HW118924   5.609   3.939   2.727  0.8567  1.1753 -1.1501
 3975SOL    HW218925   5.700   4.012   2.841  0.2502  0.5193 -0.2373
 3976SOL     OW18926   5.971   5.392   3.620  0.3717 -0.1270  0.2891
 3976SOL    HW118927   5.950   5.488   3.599 -1.7304 -1.1782 -2.8254
 3976SOL    HW218928   6.005   5.346   3.538 -1.5163 -2.7520  0.8913
 3977SOL     OW18929   2.614   5.644   3.293  0.0095 -0.1817  0.0427
 3977SOL    HW118930   2.570   5.592   3.366 -0.4896  0.5888  0.2884
 3977SOL    HW218931   2.580   5.738   3.293  2.7707  0.8506  1.2096
 3978SOL     OW18932   0.964   2.984   1.609 -0.1803 -0.1069  0.3671
 3978SOL    HW118933   0.871   3.018   1.599 -0.1348  0.1970  0.9687
 3978SOL    HW218934   0.992   2.988   1.705  0.3737 -0.4010  0.2248
 3979SOL     OW18935   0.145   2.224   6.308  0.1431 -0.0166  0.1056
 3979SOL    HW118936   0.205   2.276   6.369 -0.9058  2.7183 -1.0979
 3979SOL    HW218937   0.054   2.267   6.306 -1.8419 -3.9406  1.7296
 3980SOL     OW18938   7.308   5.457   0.067 -0.0639  0.2188  0.0147
 3980SOL    HW118939   7.360   5.471   0.151 -0.8538  1.2461  0.3456
 3980SOL    HW218940   7.372   5.450  -0.010  0.5957  1.0458  0.4747
 3981SOL     OW18941   6.088   5.574   1.774  0.1297 -0.3284  0.8847
 3981SOL    HW118942   6.126   5.507   1.710  2.1004  0.8194  0.8377
 3981SOL    HW218943   5.988   5.578   1.761  0.0822 -2.6090  0.3071
 3982SOL     OW18944   3.784   1.472   5.717  0.1848  0.2818 -0.2875
 3982SOL    HW118945   3.714   1.400   5.720  0.9418 -0.4890 -0.9494
 3982SOL    HW218946   3.869   1.434   5.682  0.3546  1.6940 -1.4439
 3983SOL     OW18947   7.192   7.358   0.727 -0.2514  0.0817 -0.1139
 3983SOL    HW118948   7.255   7.290   0.764  0.9714  0.5592 -1.2658
 3983SOL    HW218949   7.103   7.316   0.710  0.8300 -1.5304 -1.9064
 3984SOL     OW18950   1.485   3.858   7.179  0.1288  0.3809  0.3549
 3984SOL    HW118951   1.526   3.780   7.133 -0.1272  1.2630 -1.4395
 3984SOL    HW218952   1.518   3.864   7.273  1.0682 -1.1722  0.1269
 3985SOL     OW18953   5.054   5.937   7.158  0.1761 -0.4787  0.0630
 3985SOL    HW118954   5.128   5.992   7.198 -0.9390  0.0168  1.5350
 3985SOL    HW218955   4.970   5.954   7.210 -0.4854 -2.6099 -0.2830
 3986SOL     OW18956   3.845   3.972   0.654 -0.2757  0.3222  0.1830
 3986SOL    HW118957   3.790   4.045   0.613  0.1877  0.4338 -0.2523
 3986SOL    HW218958   3.855   3.990   0.752 -1.9692 -0.3220  0.4849
 3987SOL     OW18959   3.466   5.455   7.123 -0.3886 -0.2358 -0.2931
 3987SOL    HW118960   3.406   5.529   7.092  0.6339  0.8966  0.3916
 3987SOL    HW218961   3.554   5.463   7.077  0.2546 -0.0912  0.9431
 3988SOL     OW18962   6.305   1.987   0.482 -0.3021  0.4102 -0.0070
 3988SOL    HW118963   6.364   1.997   0.403 -0.4090  1.8188  0.0905
 3988SOL    HW218964   6.211   2.010   0.457 -0.3426  0.8229  0.5151
 3989SOL     OW18965   4.511   5.598   4.039  0.1188 -0.5021  0.0783
 3989SOL    HW118966   4.556   5.573   4.125  2.0970  0.5676 -0.6034
 3989SOL    HW218967   4.515   5.697   4.026 -1.0784 -0.5478 -0.7666
 3990SOL     OW18968   1.778   1.286   7.135 -0.2055 -0.0384 -0.1948
 3990SOL    HW118969   1.773   1.300   7.036 -0.5977  0.0834 -0.1625
 3990SOL    HW218970   1.702   1.228   7.163  1.1710 -1.9104 -0.2681
 3991SOL     OW18971   1.556   4.140   3.779 -0.2864 -0.1988 -0.7238
 3991SOL    HW118972   1.608   4.152   3.864 -1.8590  1.6856  0.0074
 3991SOL    HW218973   1.459   4.152   3.798 -0.7524 -0.8855 -2.6036
 3992SOL     OW18974   6.601   5.199   6.087  0.0108  0.1310 -0.2034
 3992SOL    HW118975   6.586   5.130   6.158  0.4176  0.3533  0.1003
 3992SOL    HW218976   6.534   5.187   6.014 -0.0787 -0.4275 -0.0307
 3993SOL     OW18977   3.559   3.396   4.252  0.6084  0.4898  0.0467
 3993SOL    HW118978   3.592   3.430   4.340  1.0011  1.3008 -0.4128
 3993SOL    HW218979   3.504   3.466   4.208  2.1203  0.8584 -1.2942
 3994SOL     OW18980   1.816   1.814   5.474 -0.0545  0.0310 -0.1589
 3994SOL    HW118981   1.737   1.767   5.434 -0.4007  0.6280 -0.1852
 3994SOL    HW218982   1.900   1.767   5.448 -0.4514 -1.0761  0.5095
 3995SOL     OW18983   0.206   0.327   1.003  0.1720 -0.4078 -0.2975
 3995SOL    HW118984   0.275   0.381   1.051 -0.6292  1.5000 -1.2396
 3995SOL    HW218985   0.134   0.387   0.969 -1.9111 -2.3453  0.5429
 3996SOL     OW18986   1.840   0.632   7.039 -0.6332 -0.7171 -0.0834
 3996SOL    HW118987   1.923   0.620   7.093 -2.0798 -0.3102  2.2915
 3996SOL    HW218988   1.864   0.674   6.951  1.7773 -1.5022  0.1579
 3997SOL     OW18989   2.740   1.718   0.942 -0.7248  0.0851 -0.0307
 3997SOL    HW118990   2.800   1.650   0.983 -0.6104 -0.2919 -0.8144
 3997SOL    HW218991   2.661   1.734   1.002  0.3927  0.9274  1.2207
 3998SOL     OW18992   0.366   6.347   2.592  0.3709 -0.6226  0.1563
 3998SOL    HW118993   0.438   6.311   2.651  0.7047  1.6377  1.1549
 3998SOL    HW218994   0.312   6.415   2.642 -0.7566 -0.3019 -1.4441
 3999SOL     OW18995   1.912   0.136   6.689 -0.3322  0.1063 -0.3408
 3999SOL    HW118996   1.848   0.167   6.759  0.6716 -0.8011  1.0038
 3999SOL    HW218997   2.001   0.117   6.731  0.4358  0.0414 -1.9496
 4000SOL     OW18998   2.288   4.586   4.514  0.5756 -0.2181 -0.2899
 4000SOL    HW118999   2.378   4.624   4.536  1.4136 -1.4644 -1.4473
 4000SOL    HW219000   2.273   4.592   4.415 -0.6647  0.0669 -0.0970
 4001SOL     OW19001   4.956   3.892   0.761 -0.2853  0.1820 -0.1358
 4001SOL    HW119002   4.980   3.883   0.665  0.8904  0.5709  0.1126
 4001SOL    HW219003   5.024   3.949   0.808  0.9407 -2.5849  1.6001
 4002SOL     OW19004   0.964   4.541   2.006  0.0689  0.0553  0.1535
 4002SOL    HW119005   0.889   4.590   2.049 -0.3585 -0.2419 -0.2505
 4002SOL    HW219006   0.932   4.496   1.923  0.7884  0.2788 -0.2558
 4003SOL     OW19007   6.305   5.307   4.736  0.1071 -0.0381 -0.2365
 4003SOL    HW119008   6.238   5.349   4.797 -0.9507  1.1398 -2.2023
 4003SOL    HW219009   6.301   5.208   4.746 -3.7450 -0.1699 -2.1443
 4004SOL     OW19010   0.596   3.089   6.268 -0.1960  0.0688 -0.3122
 4004SOL    HW119011   0.656   3.170   6.275 -0.2187  0.1255 -0.7459
 4004SOL    HW219012   0.515   3.113   6.214 -0.5947 -0.0214  0.2337
 4005SOL     OW19013   6.495   0.754   5.331 -0.3842 -0.1366  0.2866
 4005SOL    HW119014   6.469   0.731   5.237 -0.7931  0.6659  0.2011
 4005SOL    HW219015   6.589   0.726   5.347 -0.3793 -0.4614 -0.3007
 4006SOL     OW19016   1.037   4.834   0.740  0.2500 -0.5583  0.0098
 4006SOL    HW119017   1.131   4.801   0.748  0.4650  0.4042  1.6027
 4006SOL    HW219018   0.986   4.773   0.679  1.7980 -1.2926 -0.5934
 4007SOL     OW19019   3.049   5.800   7.292  0.2873 -0.7342 -0.1440
 4007SOL    HW119020   3.019   5.891   7.321 -0.5368 -1.4850  1.4263
 4007SOL    HW219021   3.144   5.805   7.261  0.1543  0.7113 -0.3847
 4008SOL     OW19022   0.322   4.338   6.614 -0.1021  0.5628 -0.4124
 4008SOL    HW119023   0.397   4.272   6.624 -0.5546 -0.0038 -0.7630
 4008SOL    HW219024   0.321   4.373   6.520 -0.0510  0.8508 -0.3079
 4009SOL     OW19025   0.739   1.561   0.403 -0.1494 -0.1454  0.1997
 4009SOL    HW119026   0.648   1.590   0.432  0.5079  0.9335  1.2289
 4009SOL    HW219027   0.799   1.556   0.483  1.4034  1.7773 -0.8200
 4010SOL     OW19028   3.523   6.507   6.791 -0.1270 -0.2868 -0.1810
 4010SOL    HW119029   3.544   6.604   6.781  0.3756 -0.5540 -1.7700
 4010SOL    HW219030   3.482   6.491   6.881  1.8560  1.0262  0.9751
 4011SOL     OW19031   3.642   2.899   4.312 -0.5715  0.6345  0.2824
 4011SOL    HW119032   3.638   2.995   4.283 -0.4379  0.1967 -1.2633
 4011SOL    HW219033   3.692   2.892   4.398  2.8280  1.5462 -1.5256
 4012SOL     OW19034   0.731   6.593   6.157  0.4196  0.0332  0.1112
 4012SOL    HW119035   0.681   6.670   6.118  1.0632  0.2806 -0.2321
 4012SOL    HW219036   0.680   6.556   6.235 -0.1209  0.5074 -0.0158
 4013SOL     OW19037   5.140   1.098   3.824 -0.5076  0.1711 -0.0657
 4013SOL    HW119038   5.142   1.194   3.797 -2.1357  0.6595  1.5035
 4013SOL    HW219039   5.233   1.061   3.820  0.4339  2.3109  1.0720
 4014SOL     OW19040   2.380   6.215   6.267 -0.6678 -0.2236  0.7835
 4014SOL    HW119041   2.433   6.139   6.306  0.6935  0.4408  0.2637
 4014SOL    HW219042   2.297   6.179   6.224  0.8925 -1.6681 -1.1549
 4015SOL     OW19043   3.492   6.508   6.242  0.1375 -0.7038  0.1782
 4015SOL    HW119044   3.532   6.417   6.232 -1.5265 -1.2999 -1.2753
 4015SOL    HW219045   3.513   6.564   6.162  0.3393 -0.1290  0.6268
 4016SOL     OW19046   6.065   5.233   2.064  0.2875  0.1380 -0.6302
 4016SOL    HW119047   6.046   5.204   1.970 -1.3762 -1.9425  0.3028
 4016SOL    HW219048   5.983   5.275   2.103  0.6533  0.0684  0.2246
 4017SOL     OW19049   0.738   3.293   2.883  0.6142 -0.2771 -0.1105
 4017SOL    HW119050   0.781   3.361   2.942 -0.4154 -0.5271  0.9501
 4017SOL    HW219051   0.792   3.209   2.885  2.6664  0.9094 -2.5219
 4018SOL     OW19052   0.286   3.164   5.158  0.0173  0.6097  0.2028
 4018SOL    HW119053   0.311   3.134   5.066 -1.0777 -1.2163  0.4913
 4018SOL    HW219054   0.368   3.173   5.214  0.3654 -1.8254  0.1057
 4019SOL     OW19055   0.897   5.533   0.952  0.4118  0.2176  0.0130
 4019SOL    HW119056   0.815   5.492   0.913  0.4263 -3.0596  3.1292
 4019SOL    HW219057   0.871   5.604   1.018  0.0382 -0.8597  1.0431
 4020SOL     OW19058   5.422   0.159   1.582 -0.4808 -0.0819  0.5360
 4020SOL    HW119059   5.444   0.253   1.610 -0.2654  0.3561 -1.0545
 4020SOL    HW219060   5.337   0.160   1.529  0.9225 -0.3662 -1.8250
 4021SOL     OW19061   5.656   0.272   3.982 -0.1811 -0.6478  0.2117
 4021SOL    HW119062   5.656   0.343   3.912  0.9027  0.6391  1.4867
 4021SOL    HW219063   5.593   0.297   4.055  1.0752 -0.4120  1.2300
 4022SOL     OW19064   0.245   5.850   1.075 -0.2994 -0.0069  0.7025
 4022SOL    HW119065   0.330   5.797   1.086 -0.3322  0.1696  1.9204
 4022SOL    HW219066   0.254   5.911   0.997  0.7256  0.0484  0.8498
 4023SOL     OW19067   1.073   1.949   4.108 -0.2748 -0.0600 -0.0462
 4023SOL    HW119068   1.100   1.959   4.012 -2.1118  1.7099 -0.4143
 4023SOL    HW219069   0.974   1.947   4.115 -0.1399 -1.7424  1.7116
 4024SOL     OW19070   5.479   0.057   3.274 -0.0042  0.0917 -0.1633
 4024SOL    HW119071   5.410  -0.002   3.231  0.3701  0.3618 -1.1591
 4024SOL    HW219072   5.433   0.124   3.332 -0.4953 -0.5703  0.2206
 4025SOL     OW19073   4.590   5.700   3.080  0.4979 -0.2750 -0.0654
 4025SOL    HW119074   4.624   5.794   3.076 -0.8550  0.2463  0.1803
 4025SOL    HW219075   4.574   5.675   3.176  1.3084 -0.9297 -0.0978
 4026SOL     OW19076   5.276   0.940   2.299  0.2317 -0.2314 -0.4023
 4026SOL    HW119077   5.285   1.032   2.339  0.5944  0.0705 -1.1781
 4026SOL    HW219078   5.271   0.873   2.373 -0.8553  0.4861  0.1818
 4027SOL     OW19079   2.020   3.021   0.969  0.4117 -0.3989  0.3618
 4027SOL    HW119080   1.984   2.951   0.908 -2.1902  0.5223  0.7636
 4027SOL    HW219081   2.061   2.978   1.050  2.7081 -1.5696 -1.3671
 4028SOL     OW19082   3.983   4.215   0.513  0.4812 -0.0259  0.1185
 4028SOL    HW119083   3.893   4.193   0.475 -0.2708  0.5987  1.5049
 4028SOL    HW219084   4.035   4.131   0.525  0.1147 -0.3864 -0.7555
 4029SOL     OW19085   0.848   3.102   5.177  0.2586  0.2942 -0.1051
 4029SOL    HW119086   0.794   3.186   5.174  0.0092  0.1422  0.0637
 4029SOL    HW219087   0.893   3.088   5.089  1.0683  1.1046  0.1733
 4030SOL     OW19088   2.057   7.330   3.221  0.0065  0.7169 -0.1850
 4030SOL    HW119089   2.102   7.330   3.310  0.1804 -2.2042 -0.2202
 4030SOL    HW219090   1.958   7.344   3.233 -0.0001  0.1099  0.4878
 4031SOL     OW19091   6.322   5.392   3.851  0.1252 -0.0636  0.2749
 4031SOL    HW119092   6.250   5.451   3.814  0.7731 -0.1136 -1.0765
 4031SOL    HW219093   6.371   5.441   3.923  0.8622  1.1962 -1.0495
 4032SOL     OW19094   7.156   2.046   2.818  0.2060 -0.0492 -0.2519
 4032SOL    HW119095   7.147   2.073   2.914 -0.3532 -1.2882  0.0453
 4032SOL    HW219096   7.070   2.008   2.786  1.2203 -2.2663 -0.4204
 4033SOL     OW19097   4.659   4.263   4.997  0.4566  0.0083  0.5644
 4033SOL    HW119098   4.664   4.178   4.944 -3.0239  0.3665 -0.4894
 4033SOL    HW219099   4.714   4.334   4.953  0.5547 -0.7413 -0.5311
 4034SOL     OW19100   1.162   4.295   0.577 -0.1712  0.6621  0.0645
 4034SOL    HW119101   1.143   4.264   0.484 -0.6348  0.3349  0.2710
 4034SOL    HW219102   1.223   4.375   0.574  2.4947 -1.3159 -0.4214
 4035SOL     OW19103   1.962   1.076   0.153 -0.0458  0.4920  0.1769
 4035SOL    HW119104   1.923   0.995   0.110 -0.8309  1.3646 -0.7835
 4035SOL    HW219105   2.035   1.048   0.216  1.4658 -0.8088 -2.0396
 4036SOL     OW19106   1.160   0.178   1.184 -0.1261 -0.1406  0.1808
 4036SOL    HW119107   1.104   0.187   1.102 -0.1308  3.4999  0.4663
 4036SOL    HW219108   1.101   0.182   1.265 -0.0888 -3.3649  0.3986
 4037SOL     OW19109   4.349   3.542   6.859 -0.0755 -0.0514  0.1236
 4037SOL    HW119110   4.320   3.456   6.901 -1.3531  0.2065 -0.2274
 4037SOL    HW219111   4.400   3.596   6.927 -0.3285 -0.5442  0.7120
 4038SOL     OW19112   6.521   2.414   3.248 -0.5515 -0.1720  0.4472
 4038SOL    HW119113   6.570   2.350   3.189 -1.1809 -0.0252 -0.2454
 4038SOL    HW219114   6.559   2.506   3.238 -0.1098 -0.3021  0.9075
 4039SOL     OW19115   5.884   0.619   2.200  0.2400  0.0807  0.1083
 4039SOL    HW119116   5.793   0.660   2.199 -0.5862 -1.6479  1.3905
 4039SOL    HW219117   5.877   0.524   2.231  2.2942 -0.5447 -1.2555
 4040SOL     OW19118   5.917   6.383   5.908 -0.8650 -0.3966  0.8882
 4040SOL    HW119119   5.934   6.445   5.985  0.1578 -0.0328  0.3876
 4040SOL    HW219120   5.992   6.317   5.901 -1.0457 -0.5488  0.3315
 4041SOL     OW19121   2.968   3.554   5.675 -0.0838 -0.3355 -0.5304
 4041SOL    HW119122   3.024   3.618   5.727  0.4040 -0.2810 -1.1096
 4041SOL    HW219123   2.872   3.563   5.702  0.0670  0.2083 -0.1757
 4042SOL     OW19124   3.043   5.631   4.491  0.0725  0.1666  0.1085
 4042SOL    HW119125   3.018   5.612   4.586 -0.7405  0.8174  0.0349
 4042SOL    HW219126   2.960   5.647   4.438  0.5680  0.7248 -0.5086
 4043SOL     OW19127   3.736   3.735   4.768 -0.1710 -0.2650  0.7077
 4043SOL    HW119128   3.767   3.777   4.682  1.1674  1.8330  2.1830
 4043SOL    HW219129   3.741   3.636   4.759 -0.1770 -0.0970 -1.6873
 4044SOL     OW19130   1.814   1.515   6.717  0.8512  0.0337  0.2986
 4044SOL    HW119131   1.842   1.436   6.771  0.5928 -0.4310 -0.2344
 4044SOL    HW219132   1.754   1.485   6.642 -0.9640  0.9670  1.3309
 4045SOL     OW19133   1.584   5.813   0.316  0.0724 -0.0669  0.4713
 4045SOL    HW119134   1.670   5.763   0.327  1.2684  1.5144 -1.3583
 4045SOL    HW219135   1.601   5.911   0.330 -0.8397  0.5627 -2.4642
 4046SOL     OW19136   2.800   2.920   2.230  0.1899 -0.0820 -0.6773
 4046SOL    HW119137   2.761   2.931   2.322  1.9572 -1.2427  0.2479
 4046SOL    HW219138   2.898   2.941   2.233  0.0660  0.8066 -2.5109
 4047SOL     OW19139   4.331   7.248   2.792  0.3227  0.2278 -0.3451
 4047SOL    HW119140   4.398   7.235   2.865  1.0352 -1.1884 -1.2498
 4047SOL    HW219141   4.282   7.163   2.775 -2.1304  1.3645  0.6823
 4048SOL     OW19142   1.715   0.731   6.599 -0.2743  0.1152  0.0666
 4048SOL    HW119143   1.645   0.731   6.670  1.1892  1.1673  1.5470
 4048SOL    HW219144   1.708   0.815   6.545 -1.1532 -0.5144 -0.8049
 4049SOL     OW19145   6.222   5.129   3.838  0.0844 -0.3766 -0.6673
 4049SOL    HW119146   6.127   5.142   3.866  0.9337  0.6930  1.9095
 4049SOL    HW219147   6.275   5.211   3.861  2.0535 -1.7567 -0.1083
 4050SOL     OW19148   6.435   3.536   2.576  0.6628 -0.1429 -0.2596
 4050SOL    HW119149   6.456   3.454   2.630 -0.5096  0.0296  0.4828
 4050SOL    HW219150   6.358   3.584   2.617  1.3350  1.3447 -0.6958
 4051SOL     OW19151   5.740   5.014   2.241 -0.6093 -0.2751  0.6228
 4051SOL    HW119152   5.655   4.992   2.287 -0.5438 -0.1624  0.8002
 4051SOL    HW219153   5.817   4.987   2.299 -0.5244 -0.8357  0.2432
 4052SOL     OW19154   4.924   3.601   0.375  0.1038 -0.1321 -0.2327
 4052SOL    HW119155   4.876   3.575   0.291 -0.9951  0.3543  0.2335
 4052SOL    HW219156   4.950   3.519   0.425 -1.0306 -0.4029 -0.0596
 4053SOL     OW19157   3.984   0.988   0.656 -0.2473  0.0534 -0.0159
 4053SOL    HW119158   3.940   1.070   0.621 -0.3198  0.2848  0.5996
 4053SOL    HW219159   4.050   1.013   0.727  0.0036 -0.3879 -0.0893
 4054SOL     OW19160   5.857   2.787   3.170  0.0386  0.3024  0.1043
 4054SOL    HW119161   5.824   2.849   3.098 -1.5123 -0.1369  0.4206
 4054SOL    HW219162   5.882   2.699   3.130 -1.7480 -0.2759  0.1997
 4055SOL     OW19163   2.207   2.864   6.167 -0.1220 -0.2796 -0.3003
 4055SOL    HW119164   2.233   2.797   6.097 -0.8007 -0.5085 -0.3304
 4055SOL    HW219165   2.279   2.933   6.174  1.6415 -2.1888  1.2436
 4056SOL     OW19166   6.815   2.159   0.025  0.5460 -0.4751 -0.0890
 4056SOL    HW119167   6.792   2.128   0.117 -0.1675  3.4542  1.1464
 4056SOL    HW219168   6.788   2.254   0.014 -0.8931 -1.2738 -4.9423
 4057SOL     OW19169   5.913   6.649   2.605  0.3656  0.2346 -0.3331
 4057SOL    HW119170   5.922   6.696   2.693  0.6401  2.5801 -1.5482
 4057SOL    HW219171   5.927   6.715   2.531  0.2055 -1.7020 -2.1466
 4058SOL     OW19172   5.744   7.118   1.904  0.5035  0.1664  0.2194
 4058SOL    HW119173   5.651   7.084   1.918 -0.2087  0.3682 -3.6310
 4058SOL    HW219174   5.809   7.042   1.914 -0.0767 -0.1127  2.2081
 4059SOL     OW19175   2.694   5.230   3.766  0.4201 -0.2109 -0.2602
 4059SOL    HW119176   2.727   5.214   3.859  0.7193  3.0730  0.2698
 4059SOL    HW219177   2.763   5.280   3.714 -0.8171  0.3604 -1.3904
 4060SOL     OW19178   7.313   1.313   1.715  0.5693 -0.2177 -0.2582
 4060SOL    HW119179   7.258   1.258   1.778 -0.0664  0.2133 -0.4440
 4060SOL    HW219180   7.387   1.256   1.678 -0.5471 -1.1883 -1.0437
 4061SOL     OW19181   0.970   5.349   4.421  0.4850  0.1601  0.4045
 4061SOL    HW119182   0.892   5.411   4.411  0.6151  0.2602  0.0076
 4061SOL    HW219183   0.946   5.260   4.384  0.3392  0.0089  0.8646
 4062SOL     OW19184   1.824   2.111   0.617 -0.0438  0.1229 -0.0866
 4062SOL    HW119185   1.737   2.158   0.608  0.5320  1.1561 -0.3826
 4062SOL    HW219186   1.829   2.065   0.706 -0.3972  1.0659  0.4210
 4063SOL     OW19187   3.907   5.580   4.874 -0.1562  0.0343  0.4952
 4063SOL    HW119188   3.955   5.660   4.840  0.7012 -1.4063 -1.8083
 4063SOL    HW219189   3.812   5.603   4.892 -0.1843  1.2922 -1.1659
 4064SOL     OW19190   7.175   2.707   4.354  0.2817  0.1053 -0.2341
 4064SOL    HW119191   7.111   2.783   4.339  0.1894 -0.1993 -1.3823
 4064SOL    HW219192   7.131   2.639   4.412  0.4069  0.9773  0.9058
 4065SOL     OW19193   6.068   6.738   0.269  0.9542  0.8369 -0.8733
 4065SOL    HW119194   6.090   6.817   0.326 -0.5538  0.2704  0.5327
 4065SOL    HW219195   6.133   6.664   0.287  0.0084  0.3821  0.7194
 4066SOL     OW19196   3.411   7.090   1.299 -0.1786  0.3047  0.5071
 4066SOL    HW119197   3.506   7.105   1.273 -0.7559  2.4932 -0.4752
 4066SOL    HW219198   3.352   7.149   1.245 -2.0742 -0.6928  1.4281
 4067SOL     OW19199   2.356   0.172   3.382 -0.0425 -0.1067  0.1902
 4067SOL    HW119200   2.412   0.229   3.443  1.1269 -2.4841  1.3833
 4067SOL    HW219201   2.396   0.174   3.290  0.9916 -0.3892  0.6265
 4068SOL     OW19202   4.022   1.615   0.397  0.2917 -0.1569 -0.4498
 4068SOL    HW119203   3.967   1.695   0.373 -0.3081 -0.7904 -1.2142
 4068SOL    HW219204   4.068   1.581   0.316  1.5159  0.1295  0.1154
 4069SOL     OW19205   1.311   4.733   1.561  0.1065  0.3145 -0.5215
 4069SOL    HW119206   1.250   4.748   1.639  1.7553  0.9776  0.6582
 4069SOL    HW219207   1.334   4.821   1.520  0.4027  0.0751 -0.8680
 4070SOL     OW19208   6.111   5.169   0.346  0.1559  0.1131 -0.0193
 4070SOL    HW119209   6.049   5.098   0.312 -0.6056  0.8391 -0.1580
 4070SOL    HW219210   6.204   5.132   0.352  0.3102 -0.0312 -2.8824
 4071SOL     OW19211   0.061   1.089   2.645  0.3160 -0.1486  0.0008
 4071SOL    HW119212   0.150   1.050   2.624  0.1869  0.1350 -1.1049
 4071SOL    HW219213   0.002   1.018   2.684  1.0324 -0.3234  0.7699
 4072SOL     OW19214   0.188   4.861   5.819  0.4464  0.3259 -0.3382
 4072SOL    HW119215   0.148   4.924   5.885 -0.7367 -0.5415 -0.2122
 4072SOL    HW219216   0.132   4.860   5.736  1.2981  0.5647 -0.9243
 4073SOL     OW19217   3.623   6.379   1.585  0.1824  0.1600  0.1687
 4073SOL    HW119218   3.554   6.430   1.533  0.6224  0.8072  0.2167
 4073SOL    HW219219   3.673   6.319   1.523  0.7251  0.9511 -0.1705
 4074SOL     OW19220   6.318   6.498   6.617  0.0034 -0.2765 -0.4836
 4074SOL    HW119221   6.397   6.453   6.658  1.2375  2.2307  0.0112
 4074SOL    HW219222   6.341   6.528   6.525 -0.9846 -1.1485 -1.0176
 4075SOL     OW19223   0.045   3.758   2.989  0.5731  0.0255  0.0842
 4075SOL    HW119224  -0.012   3.742   2.908  0.3341  0.0407  0.2476
 4075SOL    HW219225   0.059   3.856   3.000  0.0317  0.0631  0.4532
 4076SOL     OW19226   0.202   2.458   7.138  0.0596 -0.3321  0.2603
 4076SOL    HW119227   0.186   2.406   7.054 -0.7667 -0.0517  0.2473
 4076SOL    HW219228   0.296   2.493   7.138 -0.0116 -0.1327 -0.6568
 4077SOL     OW19229   5.675   6.638   3.303  0.0773 -0.1267 -0.0776
 4077SOL    HW119230   5.633   6.564   3.357  2.1883 -0.6218  0.9269
 4077SOL    HW219231   5.770   6.616   3.285  0.6724  2.2513  0.0061
 4078SOL     OW19232   1.133   1.852   0.779  0.0901  0.3384  0.5170
 4078SOL    HW119233   1.041   1.829   0.745  0.0227  0.4191  0.6467
 4078SOL    HW219234   1.194   1.864   0.701  0.2029 -0.5927  0.4508
 4079SOL     OW19235   1.811   7.348   3.309  0.0609 -0.4887 -0.6735
 4079SOL    HW119236   1.786   7.279   3.377 -1.4596  0.1438 -0.5789
 4079SOL    HW219237   1.728   7.388   3.270  0.9076  1.6850 -0.3153
 4080SOL     OW19238   1.134   1.522   3.667  0.4884  0.0581  0.4964
 4080SOL    HW119239   1.178   1.608   3.642  0.9255 -0.3700 -0.2520
 4080SOL    HW219240   1.117   1.520   3.765 -0.8767  1.6140  0.3044
 4081SOL     OW19241   5.480   0.318   0.142 -0.3958 -0.1602 -0.5478
 4081SOL    HW119242   5.381   0.305   0.140 -0.2156 -1.5380 -0.9437
 4081SOL    HW219243   5.519   0.287   0.055  0.3188  0.9370 -0.6231
 4082SOL     OW19244   2.662   6.458   0.041  0.2865  0.2362  0.1386
 4082SOL    HW119245   2.599   6.528   0.074  0.4954  0.2155  0.5955
 4082SOL    HW219246   2.640   6.371   0.086  0.7227  0.2596  0.4042
 4083SOL     OW19247   2.239   3.258   5.967 -0.1051  0.5375 -0.5876
 4083SOL    HW119248   2.169   3.206   5.918  0.8554 -0.6595 -0.6984
 4083SOL    HW219249   2.198   3.302   6.047 -0.8523 -0.6984 -0.2828
 4084SOL     OW19250   4.599   0.600   4.363  0.9055 -0.3290 -0.1022
 4084SOL    HW119251   4.513   0.563   4.328  0.7631 -0.7253  0.6641
 4084SOL    HW219252   4.671   0.531   4.357  1.3168  0.1820 -1.2674
 4085SOL     OW19253   6.758   2.329   1.713  0.2832  0.4246 -0.0284
 4085SOL    HW119254   6.780   2.425   1.734 -2.5744  0.8102  1.5367
 4085SOL    HW219255   6.670   2.326   1.665 -0.4145 -1.5082  1.3418
 4086SOL     OW19256   1.880   2.789   2.095  0.5295 -0.1026 -0.0001
 4086SOL    HW119257   1.881   2.767   1.998  0.4026  1.7789 -0.4443
 4086SOL    HW219258   1.807   2.854   2.114  0.6470 -0.3385  1.3389
 4087SOL     OW19259   2.144   5.416   6.118  0.2480 -0.1315  0.1322
 4087SOL    HW119260   2.222   5.417   6.180 -0.6926  0.2847  1.3132
 4087SOL    HW219261   2.064   5.382   6.166 -0.1341 -1.3123 -1.2917
 4088SOL     OW19262   6.041   4.605   3.506  0.0206 -0.8530 -0.3954
 4088SOL    HW119263   6.052   4.511   3.472  1.0973 -0.4850 -1.0837
 4088SOL    HW219264   6.119   4.660   3.477 -0.0992  0.0075  0.8677
 4089SOL     OW19265   2.058   2.572   0.681  0.3078  0.3429 -0.3637
 4089SOL    HW119266   2.047   2.474   0.663  1.3493  0.2803 -0.7011
 4089SOL    HW219267   2.112   2.613   0.607 -0.3312  1.2228 -0.3512
 4090SOL     OW19268   4.826   4.168   3.697  0.0174 -0.7405 -0.1487
 4090SOL    HW119269   4.915   4.199   3.729  0.0718 -1.5349  0.5110
 4090SOL    HW219270   4.830   4.148   3.599 -0.2978  2.2560 -0.8141
 4091SOL     OW19271   4.746   6.472   2.584  0.2593  0.4698 -0.0066
 4091SOL    HW119272   4.768   6.383   2.545 -0.0055  1.2858 -2.0905
 4091SOL    HW219273   4.658   6.467   2.631  0.3143 -0.4144  0.0053
 4092SOL     OW19274   4.456   1.876   4.450 -0.2544  0.3811 -0.1005
 4092SOL    HW119275   4.553   1.857   4.466 -0.3324  0.4002  0.4304
 4092SOL    HW219276   4.428   1.841   4.361 -0.1757 -1.1684  0.4720
 4093SOL     OW19277   3.984   0.095   5.603 -0.5058  0.2744 -0.1056
 4093SOL    HW119278   3.997   0.015   5.661 -0.3363  0.0783 -0.4095
 4093SOL    HW219279   4.043   0.087   5.522 -0.3237  0.8106 -0.0291
 4094SOL     OW19280   6.610   3.848   1.153  0.3051 -0.4269 -0.1682
 4094SOL    HW119281   6.623   3.757   1.192  1.8225 -0.4659 -0.7024
 4094SOL    HW219282   6.628   3.917   1.223  0.0475 -0.5387  0.0048
 4095SOL     OW19283   1.539   2.192   6.156 -0.7668  0.2467  0.4833
 4095SOL    HW119284   1.468   2.233   6.213 -0.6201  1.9594 -0.5304
 4095SOL    HW219285   1.588   2.123   6.208 -1.7066  0.6238  1.8967
 4096SOL     OW19286   1.827   4.322   5.969  0.0901  0.1757 -0.0909
 4096SOL    HW119287   1.799   4.227   5.980 -0.3271  0.2771 -0.2525
 4096SOL    HW219288   1.756   4.372   5.918  0.0153  0.7160  0.5294
 4097SOL     OW19289   5.935   4.404   3.215 -0.2563  0.2297  0.6654
 4097SOL    HW119290   5.841   4.430   3.194 -0.4185 -0.6092  0.3062
 4097SOL    HW219291   5.998   4.474   3.181 -0.7554  0.8305  0.9752
 4098SOL     OW19292   1.324   1.826   0.594  0.1896 -0.2640 -0.0008
 4098SOL    HW119293   1.393   1.856   0.528  1.2570 -0.5483  0.9559
 4098SOL    HW219294   1.357   1.745   0.642 -0.4590  0.0606  1.0283
 4099SOL     OW19295   7.321   2.963   6.788 -0.6869 -0.9893 -0.0182
 4099SOL    HW119296   7.326   3.043   6.847 -3.1811  0.2960 -1.4368
 4099SOL    HW219297   7.329   2.991   6.692  0.4937 -2.6955 -0.4514
 4100SOL     OW19298   6.296   1.718   3.560 -0.3386  0.0993  0.3443
 4100SOL    HW119299   6.385   1.693   3.598 -0.1035  0.9702  0.3914
 4100SOL    HW219300   6.304   1.805   3.511 -1.2044  0.2987  0.5403
 4101SOL     OW19301   2.368   4.635   0.164  0.1329  0.8359 -0.0663
 4101SOL    HW119302   2.300   4.571   0.126  0.1558  1.4189 -1.1170
 4101SOL    HW219303   2.459   4.595   0.155 -0.0354  0.1413  1.1581
 4102SOL     OW19304   1.512   5.204   4.642 -0.5586  0.1300 -0.5137
 4102SOL    HW119305   1.516   5.164   4.550  1.0649 -0.6436 -0.1215
 4102SOL    HW219306   1.490   5.302   4.635 -1.2750 -0.1018 -1.6609
 4103SOL     OW19307   1.571   2.352   0.194 -0.5043  0.2649  0.6938
 4103SOL    HW119308   1.507   2.279   0.170 -2.6961  2.1644  0.6332
 4103SOL    HW219309   1.640   2.361   0.121 -1.7368 -0.0433 -0.5355
 4104SOL     OW19310   5.313   5.645   6.449  1.3759 -0.0242 -0.4082
 4104SOL    HW119311   5.296   5.725   6.505  1.3971 -0.7332  0.6318
 4104SOL    HW219312   5.360   5.672   6.365  1.2076  1.0645 -0.1595
 4105SOL     OW19313   1.543   2.267   5.592  0.0448  0.1272  0.4236
 4105SOL    HW119314   1.453   2.309   5.579 -0.5103 -1.2881 -0.4537
 4105SOL    HW219315   1.553   2.239   5.688  0.3438  2.0424  0.9665
 4106SOL     OW19316   5.845   7.061   2.375  0.9159 -0.1228  0.1508
 4106SOL    HW119317   5.882   7.019   2.457 -1.7463 -1.4818  0.7324
 4106SOL    HW219318   5.816   7.154   2.395 -2.3738 -1.3829  1.6091
 4107SOL     OW19319   4.290   0.399   6.922  0.5374  0.3470  0.0042
 4107SOL    HW119320   4.286   0.306   6.959  0.5192  0.7800  1.1047
 4107SOL    HW219321   4.281   0.465   6.997  2.0389  1.2455 -0.5935
 4108SOL     OW19322   4.151   0.147   7.249 -0.0136 -0.0253 -0.4483
 4108SOL    HW119323   4.058   0.113   7.232  0.1134 -1.6495  1.8607
 4108SOL    HW219324   4.195   0.089   7.317  2.1203  1.7267 -0.2993
 4109SOL     OW19325   4.965   1.916   6.864 -0.5519  0.1908 -0.0268
 4109SOL    HW119326   4.889   1.938   6.925 -2.0509 -0.6428 -1.5375
 4109SOL    HW219327   4.931   1.906   6.771  0.8377 -3.6200 -0.2082
 4110SOL     OW19328   4.091   0.880   3.878  0.0727 -0.0307 -0.2182
 4110SOL    HW119329   4.148   0.958   3.849  0.7163 -0.0224  1.0374
 4110SOL    HW219330   4.032   0.852   3.803  0.7393  0.8747 -1.0877
 4111SOL     OW19331   2.433   6.233   2.493 -0.7856  0.8619  0.2079
 4111SOL    HW119332   2.478   6.222   2.405 -0.7110 -0.0525  0.3530
 4111SOL    HW219333   2.354   6.172   2.498 -1.0225  1.1964  0.6223
 4112SOL     OW19334   5.913   2.579   3.975 -0.3571 -0.1708  0.8308
 4112SOL    HW119335   5.913   2.661   3.918 -1.3845  1.5706  3.2785
 4112SOL    HW219336   5.855   2.509   3.932  1.7687 -0.2794 -2.0601
 4113SOL     OW19337   4.051   2.906   4.897 -0.2642  0.0918  0.3668
 4113SOL    HW119338   4.123   2.929   4.962 -0.6713 -0.7609  1.1182
 4113SOL    HW219339   4.092   2.885   4.808  0.2831  1.4001  0.2852
 4114SOL     OW19340   6.811   4.097   2.211 -0.2717  0.2986  0.1463
 4114SOL    HW119341   6.774   4.122   2.121 -0.3732 -0.1099  0.0741
 4114SOL    HW219342   6.907   4.071   2.201  0.2633  2.0746  0.4450
 4115SOL     OW19343   2.164   5.814   3.495 -0.2282  0.4880 -0.2062
 4115SOL    HW119344   2.126   5.898   3.534 -3.6991 -1.0171 -0.1409
 4115SOL    HW219345   2.247   5.789   3.544 -0.8719  2.2033  1.8576
 4116SOL     OW19346   2.386   2.443   6.752 -0.0411  0.3794 -0.3531
 4116SOL    HW119347   2.457   2.411   6.814 -0.9782 -0.6880  0.1956
 4116SOL    HW219348   2.302   2.390   6.768 -0.5187  0.6269 -1.9930
 4117SOL     OW19349   0.166   5.575   2.018  0.9627  0.4882 -0.1078
 4117SOL    HW119350   0.073   5.585   2.054  0.9851 -2.0724  0.7916
 4117SOL    HW219351   0.228   5.632   2.071  0.5178 -0.9338  1.9988
 4118SOL     OW19352   4.645   7.351   5.520  0.4865 -0.4716  0.2374
 4118SOL    HW119353   4.721   7.342   5.456 -0.9752 -0.6881 -1.4946
 4118SOL    HW219354   4.655   7.437   5.572  0.8711  0.4755 -1.3839
 4119SOL     OW19355   5.616   3.849   2.543 -0.1365  0.4738  0.0172
 4119SOL    HW119356   5.660   3.922   2.491 -0.9799  0.9636 -0.0144
 4119SOL    HW219357   5.684   3.802   2.599  0.4995  0.9452 -0.3583
 4120SOL     OW19358   0.112   2.456   5.057  0.6065 -0.0592 -0.0028
 4120SOL    HW119359   0.204   2.445   5.095  1.0464  2.0502 -0.3918
 4120SOL    HW219360   0.075   2.544   5.085  0.1937  0.7236 -2.8452
 4121SOL     OW19361   7.229   2.342   4.399 -0.5801 -0.0249  0.1100
 4121SOL    HW119362   7.150   2.296   4.440  0.5734 -1.7540  0.4197
 4121SOL    HW219363   7.281   2.388   4.471  0.6951 -1.9298  0.4303
 4122SOL     OW19364   3.339   0.781   1.219  0.0660  0.3073  0.3476
 4122SOL    HW119365   3.355   0.684   1.200  0.0682  0.5761 -1.0887
 4122SOL    HW219366   3.282   0.791   1.301  0.7486 -0.8769  0.9760
 4123SOL     OW19367   2.768   4.323   3.271 -0.1195 -0.8143  0.1637
 4123SOL    HW119368   2.791   4.416   3.300  0.2379 -1.8243  3.2885
 4123SOL    HW219369   2.851   4.276   3.240 -0.3399 -0.0637 -1.6591
 4124SOL     OW19370   1.142   0.024   3.794  0.2781 -0.0189 -0.4194
 4124SOL    HW119371   1.066  -0.037   3.774  0.8324 -0.6815 -0.5211
 4124SOL    HW219372   1.151   0.036   3.893 -1.3483  1.8368 -0.4709
 4125SOL     OW19373   4.832   2.518   1.120  0.1704 -0.6048 -0.2893
 4125SOL    HW119374   4.823   2.465   1.204  1.4959 -3.5676 -1.9535
 4125SOL    HW219375   4.912   2.578   1.126  0.8764 -1.5870  0.1642
 4126SOL     OW19376   0.411   1.036   1.463 -0.3113  0.2959  0.3409
 4126SOL    HW119377   0.358   0.952   1.449 -1.8874  1.0807  1.4506
 4126SOL    HW219378   0.427   1.080   1.374 -0.2153 -0.7354 -0.1534
 4127SOL     OW19379   5.498   0.678   4.936 -0.3037  0.0119  0.2106
 4127SOL    HW119380   5.543   0.738   5.001 -0.7622  0.5998 -0.0146
 4127SOL    HW219381   5.443   0.611   4.985  0.1405 -0.1765  0.4568
 4128SOL     OW19382   1.885   6.920   0.654  0.3375 -0.2471 -0.4474
 4128SOL    HW119383   1.937   6.916   0.740 -0.2071  1.0237 -0.0448
 4128SOL    HW219384   1.934   6.977   0.588  0.1600 -0.2373 -0.5702
 4129SOL     OW19385   1.991   2.598   1.156 -0.2542  0.7583 -0.3715
 4129SOL    HW119386   1.947   2.546   1.229  1.4439 -0.1396  0.0435
 4129SOL    HW219387   1.930   2.603   1.077 -0.6838 -1.4098 -0.2066
 4130SOL     OW19388   7.339   1.860   3.759 -0.4326 -0.7086 -0.1355
 4130SOL    HW119389   7.315   1.945   3.712 -0.6504 -0.5986  0.1743
 4130SOL    HW219390   7.370   1.881   3.851  0.4415 -0.8859 -0.3839
 4131SOL     OW19391   6.544   0.787   2.460 -0.4673  0.3499 -0.0120
 4131SOL    HW119392   6.630   0.778   2.511 -0.1859  2.1082 -0.1157
 4131SOL    HW219393   6.557   0.854   2.387 -2.4592  2.1258  1.2087
 4132SOL     OW19394   2.908   4.955   3.959  0.5691 -0.4271  0.3372
 4132SOL    HW119395   2.913   4.967   4.059  1.1141 -0.4190  0.3108
 4132SOL    HW219396   2.968   4.880   3.931 -0.8984 -1.5723  0.2003
 4133SOL     OW19397   2.629   4.559   6.751  0.0630 -0.0149  0.1173
 4133SOL    HW119398   2.716   4.527   6.714  0.1981 -1.3800  1.5383
 4133SOL    HW219399   2.598   4.639   6.700  1.6989 -0.0594 -0.9807
 4134SOL     OW19400   1.201   5.006   0.956 -0.4451 -0.2900  0.0718
 4134SOL    HW119401   1.141   4.947   0.902 -0.8017 -0.8422  1.0711
 4134SOL    HW219402   1.235   5.080   0.898 -1.0339 -0.7265 -0.8447
 4135SOL     OW19403   7.265   4.667   0.290 -0.5609 -0.0405  0.4916
 4135SOL    HW119404   7.315   4.581   0.289  0.8230  0.7423  0.7380
 4135SOL    HW219405   7.202   4.669   0.367  1.3443  0.2299  2.0916
 4136SOL     OW19406   3.236   6.189   4.802  0.3765 -0.4346 -0.1462
 4136SOL    HW119407   3.199   6.264   4.747 -0.1956 -0.7171 -0.1560
 4136SOL    HW219408   3.236   6.215   4.899  2.1073  0.3591 -0.3371
 4137SOL     OW19409   3.553   2.011   2.510  0.2280  0.0273  0.2561
 4137SOL    HW119410   3.546   1.924   2.462  0.5100 -0.4126  0.9963
 4137SOL    HW219411   3.568   1.994   2.608 -2.2699  0.8822  0.8318
 4138SOL     OW19412   0.186   4.178   0.233 -0.6278 -0.2226  0.4027
 4138SOL    HW119413   0.194   4.199   0.135 -2.6331  0.2402  0.3093
 4138SOL    HW219414   0.164   4.081   0.244  1.4548 -0.7092  0.5047
 4139SOL     OW19415   5.846   0.854   0.601  0.1882 -0.2381 -0.3020
 4139SOL    HW119416   5.937   0.859   0.561 -0.2232  1.2509 -1.0733
 4139SOL    HW219417   5.777   0.863   0.530 -0.5638  0.8265  0.5477
 4140SOL     OW19418   4.833   3.911   3.771 -0.1153 -0.0185  0.1101
 4140SOL    HW119419   4.831   4.011   3.768  0.3871  0.0173  0.8297
 4140SOL    HW219420   4.916   3.877   3.727 -0.2600 -0.1168 -0.0890
 4141SOL     OW19421   0.120   3.616   0.194  0.0686  0.1601  0.2923
 4141SOL    HW119422   0.130   3.715   0.181  0.1787  0.2410  0.9856
 4141SOL    HW219423   0.030   3.587   0.163 -0.2385  0.5983  0.7792
 4142SOL     OW19424   4.330   0.240   6.026  0.6978  0.0788 -0.1300
 4142SOL    HW119425   4.340   0.236   6.125  3.1385 -1.5707 -0.3990
 4142SOL    HW219426   4.400   0.300   5.988 -1.8098  2.7803 -0.7097
 4143SOL     OW19427   3.757   0.431   2.821 -0.8940  0.2732 -0.1911
 4143SOL    HW119428   3.799   0.477   2.898  0.1532 -0.8074 -0.1003
 4143SOL    HW219429   3.771   0.332   2.829 -0.4131  0.1757 -1.9821
 4144SOL     OW19430   2.254   2.505   3.069 -0.1030  0.1125  0.4252
 4144SOL    HW119431   2.288   2.579   3.127 -0.2138  0.2712  0.2891
 4144SOL    HW219432   2.226   2.542   2.981  2.6558 -0.5349 -0.7564
 4145SOL     OW19433   1.425   4.280   2.167 -0.2126 -0.3594 -0.1392
 4145SOL    HW119434   1.435   4.199   2.110  1.6127 -0.2266 -0.0312
 4145SOL    HW219435   1.464   4.359   2.119  1.3635 -0.2522  1.2800
 4146SOL     OW19436   5.461   2.612   2.596 -0.3919  0.1198 -0.0245
 4146SOL    HW119437   5.454   2.660   2.684 -1.2576  0.5812 -0.3343
 4146SOL    HW219438   5.483   2.678   2.524  1.0331 -0.3717 -0.0432
 4147SOL     OW19439   1.746   3.972   2.495  0.0834 -0.2811 -0.2140
 4147SOL    HW119440   1.666   4.008   2.447 -0.7355 -1.1924  0.4549
 4147SOL    HW219441   1.827   4.027   2.472 -0.8314  0.9452 -0.5055
 4148SOL     OW19442   7.104   2.592   7.316 -0.3562  0.1498 -0.0170
 4148SOL    HW119443   7.107   2.673   7.257  1.8082  0.2468  0.1925
 4148SOL    HW219444   7.169   2.524   7.281 -0.2186 -0.4191  1.3411
 4149SOL     OW19445   3.442   5.964   2.301  0.5698  0.0456 -0.2425
 4149SOL    HW119446   3.500   5.888   2.331  1.0347  0.5524  0.1341
 4149SOL    HW219447   3.365   5.927   2.248  1.4195 -0.6012 -1.0368
 4150SOL     OW19448   6.164   1.806   4.559 -0.0205 -0.1236 -0.3932
 4150SOL    HW119449   6.171   1.806   4.459 -0.3304 -0.0652 -0.4156
 4150SOL    HW219450   6.237   1.750   4.597  0.1315 -0.1037 -0.6512
 4151SOL     OW19451   6.414   2.542   2.274  0.7247  0.0255  0.0150
 4151SOL    HW119452   6.370   2.618   2.226  0.0251 -0.7504 -0.6135
 4151SOL    HW219453   6.424   2.465   2.211  1.6356 -0.3186  0.5760
 4152SOL     OW19454   4.461   0.577   0.190 -0.7906 -0.0176 -0.2073
 4152SOL    HW119455   4.465   0.538   0.282  0.3343  1.5712  0.4248
 4152SOL    HW219456   4.464   0.676   0.195  0.5802  0.0581 -2.0480
 4153SOL     OW19457   6.002   6.079   3.927 -0.2571  0.1558  0.2101
 4153SOL    HW119458   6.076   6.032   3.878 -0.0077  1.2239 -0.4645
 4153SOL    HW219459   5.994   6.042   4.019 -1.0523 -2.2228 -0.7846
 4154SOL     OW19460   0.138   2.252   6.951 -0.4369 -0.3500  0.1831
 4154SOL    HW119461   0.076   2.197   7.007  0.1149 -1.7185 -0.5279
 4154SOL    HW219462   0.232   2.224   6.967 -0.0890  0.8445  0.2936
 4155SOL     OW19463   1.047   5.714   0.377 -0.7153  0.1122  0.5189
 4155SOL    HW119464   1.017   5.730   0.283  0.2210  0.6394  0.3051
 4155SOL    HW219465   1.039   5.616   0.398 -3.4241  0.3521  0.7840
 4156SOL     OW19466   0.226   4.829   3.284 -0.1945 -0.9105 -0.6927
 4156SOL    HW119467   0.182   4.749   3.243 -1.4003 -0.8095  0.3590
 4156SOL    HW219468   0.164   4.906   3.282  0.4521 -0.3768 -0.4336
 4157SOL     OW19469   1.710   3.643   2.207 -0.0533  0.2637 -0.1926
 4157SOL    HW119470   1.660   3.727   2.227  0.4589 -0.0293  2.5359
 4157SOL    HW219471   1.789   3.664   2.149 -1.0445  1.3194 -1.1959
 4158SOL     OW19472   5.540   6.340   4.624  0.6850  0.0578  0.1868
 4158SOL    HW119473   5.471   6.400   4.582  0.2438  0.1447  1.0439
 4158SOL    HW219474   5.627   6.389   4.630  0.2999  0.6565  0.9745
 4159SOL     OW19475   6.094   2.695   4.271 -0.7968  0.7477 -0.0978
 4159SOL    HW119476   6.149   2.683   4.188  0.4165 -0.1099  0.8099
 4159SOL    HW219477   6.016   2.754   4.251 -2.3789 -2.0913 -2.6743
 4160SOL     OW19478   0.489   5.741   1.059 -0.2807  0.2882  0.0192
 4160SOL    HW119479   0.523   5.669   0.998  0.3979 -1.5397  2.4901
 4160SOL    HW219480   0.552   5.819   1.058  1.1131 -0.8228  0.3703
 4161SOL     OW19481   2.005   1.277   7.297 -0.3321 -0.2150  0.2220
 4161SOL    HW119482   1.982   1.230   7.383 -0.0812  0.1904  0.5132
 4161SOL    HW219483   1.922   1.288   7.242 -0.1111 -2.5367 -0.6241
 4162SOL     OW19484   2.976   3.708   7.246 -0.8018  0.1954 -0.2785
 4162SOL    HW119485   3.031   3.654   7.182 -0.6651 -0.1961  0.1587
 4162SOL    HW219486   2.973   3.660   7.334 -0.9275  0.7618  0.0230
 4163SOL     OW19487   0.702   1.760   6.801 -0.0042 -0.1905  0.0176
 4163SOL    HW119488   0.630   1.700   6.838  0.0671 -0.2220  0.1060
 4163SOL    HW219489   0.709   1.746   6.703 -1.7641  1.5464 -0.3979
 4164SOL     OW19490   3.004   1.284   1.228  0.3127  0.1261  0.1226
 4164SOL    HW119491   3.061   1.363   1.255 -0.8056  0.8354  0.4277
 4164SOL    HW219492   2.911   1.298   1.261 -0.0122 -1.0940 -0.2802
 4165SOL     OW19493   6.918   3.984   0.602 -0.2410 -0.1212  0.0681
 4165SOL    HW119494   6.829   3.995   0.646 -0.6490  1.5763 -1.1307
 4165SOL    HW219495   6.907   3.928   0.519 -0.1384 -0.1202  0.0544
 4166SOL     OW19496   2.728   5.979   1.350  0.7086  0.3742  0.5219
 4166SOL    HW119497   2.652   5.922   1.380  0.8110  0.0667  0.1963
 4166SOL    HW219498   2.738   5.973   1.251  1.0549  0.5427  0.5437
 4167SOL     OW19499   5.009   2.990   4.887  0.2747 -0.1612 -0.1139
 4167SOL    HW119500   5.012   3.084   4.854  0.5696 -0.2645 -0.3840
 4167SOL    HW219501   4.915   2.966   4.912 -0.3289 -0.7135 -2.7315
 4168SOL     OW19502   2.397   1.636   1.900 -0.0674 -0.5466  0.2470
 4168SOL    HW119503   2.324   1.705   1.895  0.4314 -0.0763 -0.5760
 4168SOL    HW219504   2.369   1.556   1.848  1.2811  0.8290 -2.7120
 4169SOL     OW19505   6.175   3.180   4.529  0.5696 -0.2523 -0.5283
 4169SOL    HW119506   6.133   3.090   4.532 -0.3765  0.2336  2.1365
 4169SOL    HW219507   6.274   3.172   4.544  0.3276 -0.7610  0.8277
 4170SOL     OW19508   7.208   0.958   3.047 -0.1017 -0.1274 -0.5800
 4170SOL    HW119509   7.231   0.944   3.144 -0.7838 -3.3854 -0.8282
 4170SOL    HW219510   7.217   1.055   3.024  2.2109  0.3755  2.1919
 4171SOL     OW19511   4.768   0.871   3.000  0.0848 -0.5746 -0.8533
 4171SOL    HW119512   4.830   0.925   3.058 -0.0905  0.0079 -1.2068
 4171SOL    HW219513   4.822   0.810   2.942  0.2030 -2.4816  1.2007
 4172SOL     OW19514   6.327   5.137   3.292 -0.1337  0.8105  0.2081
 4172SOL    HW119515   6.305   5.160   3.387  0.1860  1.8847  0.0280
 4172SOL    HW219516   6.243   5.135   3.238 -0.3623 -0.1982  0.5927
 4173SOL     OW19517   6.962   5.363   1.896  0.3130 -0.0767 -0.2992
 4173SOL    HW119518   6.899   5.366   1.818  1.8575 -1.4468 -1.6383
 4173SOL    HW219519   6.990   5.269   1.912  1.3095  0.4084  0.8839
 4174SOL     OW19520   0.231   6.350   7.263 -0.1088 -0.1714 -0.2004
 4174SOL    HW119521   0.175   6.399   7.330  1.2280  0.5715  0.3912
 4174SOL    HW219522   0.246   6.408   7.183  1.6281  0.4807  0.5794
 4175SOL     OW19523   6.188   5.482   6.085 -0.5189  0.3523 -0.0010
 4175SOL    HW119524   6.189   5.386   6.058  0.4280  0.5628 -0.7481
 4175SOL    HW219525   6.266   5.529   6.044 -1.5570  1.6718 -0.4948
 4176SOL     OW19526   5.199   6.218   1.999 -0.2349 -0.1686 -0.4766
 4176SOL    HW119527   5.217   6.148   1.930  1.7595  0.7415 -0.9155
 4176SOL    HW219528   5.243   6.192   2.085 -2.1417 -0.9651  0.2880
 4177SOL     OW19529   2.109   2.453   6.097 -0.2393  0.1766  0.4456
 4177SOL    HW119530   2.128   2.384   6.027 -1.8530  0.6130 -0.4335
 4177SOL    HW219531   2.125   2.544   6.058 -2.4200  0.4796  0.2198
 4178SOL     OW19532   5.418   5.949   3.982  0.4320  0.4242  0.4740
 4178SOL    HW119533   5.422   6.014   3.906 -1.8646  1.2774  1.0443
 4178SOL    HW219534   5.491   5.881   3.972  0.9782  1.3126 -1.7734
 4179SOL     OW19535   4.708   7.324   3.669 -0.3337  0.4176  0.1056
 4179SOL    HW119536   4.758   7.273   3.738 -1.7959 -2.0678 -0.6036
 4179SOL    HW219537   4.764   7.333   3.586 -0.0195  0.1283  0.2887
 4180SOL     OW19538   5.987   0.476   0.011 -0.0027  0.7136  0.3351
 4180SOL    HW119539   5.956   0.566  -0.021 -0.5608 -0.2330 -1.8906
 4180SOL    HW219540   5.909   0.421   0.038  0.2598  0.5590  0.7845
 4181SOL     OW19541   2.397   6.495   5.869  0.1487 -0.6385 -0.1628
 4181SOL    HW119542   2.434   6.409   5.833 -0.9477 -0.4133 -1.8751
 4181SOL    HW219543   2.330   6.475   5.940 -2.0499 -1.3240 -2.3794
 4182SOL     OW19544   3.282   5.442   4.463  0.2234  0.2709  0.3899
 4182SOL    HW119545   3.283   5.404   4.371 -0.6042  1.3711 -0.0861
 4182SOL    HW219546   3.196   5.491   4.477  0.1748 -0.2174  1.8817
 4183SOL     OW19547   1.663   4.666   2.894  0.0960 -0.1587  0.3004
 4183SOL    HW119548   1.701   4.756   2.874  1.2601 -0.7146 -0.0957
 4183SOL    HW219549   1.686   4.640   2.987  1.0339 -0.6451 -0.0536
 4184SOL     OW19550   0.322   6.722   7.158 -0.1518  0.6504  0.7239
 4184SOL    HW119551   0.305   6.721   7.257 -1.7203  1.4151  0.4783
 4184SOL    HW219552   0.355   6.812   7.131 -0.6125  0.7344  0.4242
 4185SOL     OW19553   3.261   4.452   4.442  0.7220 -0.1097  0.2661
 4185SOL    HW119554   3.326   4.483   4.510  1.7919 -1.8040  0.0410
 4185SOL    HW219555   3.175   4.425   4.487  0.8353  0.3501  0.7566
 4186SOL     OW19556   6.726   1.155   2.659  0.2753 -0.3602  0.4765
 4186SOL    HW119557   6.762   1.240   2.620 -0.8204 -0.0905  0.0186
 4186SOL    HW219558   6.729   1.083   2.590 -0.0386 -0.3395  0.4394
 4187SOL     OW19559   2.532   1.205   0.165  0.0581 -0.3316  0.8334
 4187SOL    HW119560   2.466   1.131   0.157 -0.0296 -0.1690 -0.0021
 4187SOL    HW219561   2.624   1.169   0.145 -0.2660  0.2580 -1.9763
 4188SOL     OW19562   3.059   4.810   0.432 -0.6881 -0.3868 -0.7648
 4188SOL    HW119563   3.070   4.880   0.502 -1.0093 -1.4171  0.3234
 4188SOL    HW219564   2.979   4.754   0.452  0.0475 -1.5993 -1.1645
 4189SOL     OW19565   6.606   1.669   4.763 -0.2946 -0.4810  0.8305
 4189SOL    HW119566   6.700   1.666   4.729 -0.1745  0.8773  1.0437
 4189SOL    HW219567   6.603   1.722   4.847 -1.6071  1.3026 -0.3187
 4190SOL     OW19568   4.355   2.642   5.221  0.3518 -0.2340  0.4383
 4190SOL    HW119569   4.438   2.595   5.193 -0.3884 -1.2857 -0.0299
 4190SOL    HW219570   4.350   2.645   5.321  0.6155 -0.7761  0.4681
 4191SOL     OW19571   3.978   0.649   4.228  0.0342 -0.9232  0.3033
 4191SOL    HW119572   4.014   0.592   4.301  0.6534  0.4873  1.1242
 4191SOL    HW219573   3.879   0.657   4.237  0.2820  0.6381  2.0476
 4192SOL     OW19574   4.120   7.033   0.029 -0.0694  0.0664 -0.1555
 4192SOL    HW119575   4.174   7.016  -0.054  1.1932  1.3553  0.3786
 4192SOL    HW219576   4.028   7.064   0.003 -0.5163 -1.9371 -1.0691
 4193SOL     OW19577   0.773   5.502   0.151  0.1264  0.2437 -0.6013
 4193SOL    HW119578   0.682   5.525   0.116 -0.1879  2.5173  1.4934
 4193SOL    HW219579   0.767   5.485   0.250  1.8226 -0.4431 -0.6037
 4194SOL     OW19580   0.239   3.385   5.310  0.0738  0.3754 -0.2200
 4194SOL    HW119581   0.183   3.405   5.391 -2.0145  1.2651 -1.8343
 4194SOL    HW219582   0.240   3.286   5.294 -0.5190  0.2981  0.2015
 4195SOL     OW19583   5.965   6.782   3.527  0.4052  0.1106  0.2453
 4195SOL    HW119584   5.932   6.696   3.565 -0.4469  0.6190  0.6811
 4195SOL    HW219585   5.968   6.776   3.427  1.5126 -0.8262  0.3289
 4196SOL     OW19586   2.128   1.566   2.105 -0.3064  0.7642 -0.4847
 4196SOL    HW119587   2.156   1.650   2.058  0.8837  0.5110 -0.2361
 4196SOL    HW219588   2.037   1.579   2.145 -0.2647  1.8254 -0.7140
 4197SOL     OW19589   1.362   0.393   7.225  0.0568  0.4044  0.3923
 4197SOL    HW119590   1.366   0.352   7.134 -1.0960  0.7365  0.1937
 4197SOL    HW219591   1.307   0.335   7.286  0.4117  0.4380  0.7516
 4198SOL     OW19592   0.347   6.390   0.274 -0.0534  0.4527 -0.6523
 4198SOL    HW119593   0.405   6.309   0.280 -0.6332  0.0561 -0.2985
 4198SOL    HW219594   0.371   6.442   0.192  0.2846 -0.1104 -0.9184
 4199SOL     OW19595   2.442   5.286   0.156  0.2031 -0.1910 -0.1113
 4199SOL    HW119596   2.523   5.341   0.181 -0.4932  0.4712  0.7374
 4199SOL    HW219597   2.415   5.230   0.234 -0.2819 -0.2614 -0.3311
 4200SOL     OW19598   5.317   4.031   4.439  0.1070 -0.0430  0.6901
 4200SOL    HW119599   5.289   4.088   4.361  1.2662 -2.1757 -1.3688
 4200SOL    HW219600   5.409   4.058   4.468  0.1380 -0.0038  0.5570
 4201SOL     OW19601   6.242   0.896   6.266  0.0494 -0.3418 -0.2228
 4201SOL    HW119602   6.312   0.824   6.264 -0.1824 -0.6249  1.4672
 4201SOL    HW219603   6.252   0.950   6.349 -0.3867  0.9882 -1.0253
 4202SOL     OW19604   3.402   2.801   1.454  1.0117 -0.2867 -0.3193
 4202SOL    HW119605   3.479   2.740   1.435  0.4106 -1.2027  0.1563
 4202SOL    HW219606   3.335   2.793   1.380  0.3595 -1.1443  0.3473
 4203SOL     OW19607   2.285   4.909   4.751 -0.6011  0.1231  0.1946
 4203SOL    HW119608   2.306   5.004   4.728  0.7667 -0.2848 -0.2541
 4203SOL    HW219609   2.289   4.898   4.851  0.8111  0.1694  0.1478
 4204SOL     OW19610   1.951   1.122   5.920  0.1092  0.1023 -0.3446
 4204SOL    HW119611   1.963   1.040   5.863 -0.0546  1.0898 -1.8229
 4204SOL    HW219612   1.854   1.134   5.942  0.2448 -0.6483  0.7330
 4205SOL     OW19613   7.323   3.459   2.080 -0.3603  0.2765  0.5374
 4205SOL    HW119614   7.308   3.368   2.040  0.3592 -0.5961  2.2043
 4205SOL    HW219615   7.240   3.514   2.068 -0.8161 -0.5978 -0.4675
 4206SOL     OW19616   0.912   1.767   6.295 -0.8821 -0.8537 -0.2074
 4206SOL    HW119617   0.864   1.828   6.357 -0.6722 -0.1620 -0.7168
 4206SOL    HW219618   0.888   1.790   6.201  0.3945 -0.5398 -0.4620
 4207SOL     OW19619   3.171   4.122   3.782 -0.4106  0.2968  0.2651
 4207SOL    HW119620   3.108   4.080   3.717 -1.7014  1.2151  0.9132
 4207SOL    HW219621   3.124   4.140   3.868 -0.4468  4.8173 -0.6016
 4208SOL     OW19622   4.535   3.368   5.460 -0.3115  0.3824  0.1478
 4208SOL    HW119623   4.445   3.408   5.476 -0.8488  0.4572 -2.7181
 4208SOL    HW219624   4.528   3.294   5.393  1.5101 -0.8243  1.2208
 4209SOL     OW19625   4.895   0.758   1.275 -0.3085 -0.1574  0.2221
 4209SOL    HW119626   4.819   0.694   1.282 -0.6908  0.4695  2.1424
 4209SOL    HW219627   4.878   0.837   1.334  1.5245  0.3062  0.1706
 4210SOL     OW19628   0.124   1.512   1.592 -0.9235 -0.2959 -0.0190
 4210SOL    HW119629   0.178   1.481   1.514 -1.7571 -1.5933 -0.1060
 4210SOL    HW219630   0.071   1.435   1.628 -0.9949  0.4233  1.4641
 4211SOL     OW19631   2.639   1.546   2.028  0.1958  0.0007 -0.1584
 4211SOL    HW119632   2.639   1.447   2.011 -0.8846 -0.1260  0.5054
 4211SOL    HW219633   2.549   1.584   2.005  0.9142  1.0138 -1.3780
 4212SOL     OW19634   6.965   4.545   6.828  0.3418 -0.1880  0.2316
 4212SOL    HW119635   7.031   4.566   6.900 -2.0977 -0.3735  2.6254
 4212SOL    HW219636   6.897   4.618   6.823 -1.0975 -1.5175  0.0399
 4213SOL     OW19637   4.019   2.598   3.405  0.0464  0.1427  0.1454
 4213SOL    HW119638   3.941   2.539   3.386  0.3119 -0.7668  1.7553
 4213SOL    HW219639   3.995   2.693   3.386 -1.9148  0.0342  1.8921
 4214SOL     OW19640   0.197   0.670   5.407  0.5648  0.2640 -0.0253
 4214SOL    HW119641   0.162   0.736   5.473  1.1544  0.0616  0.4987
 4214SOL    HW219642   0.265   0.714   5.349  1.2882  0.0176  0.6172
 4215SOL     OW19643   1.237   6.467   0.672 -0.4346 -0.3754  0.1324
 4215SOL    HW119644   1.165   6.440   0.607 -0.6854  1.0354 -0.1890
 4215SOL    HW219645   1.195   6.514   0.750  0.3011  2.6675 -1.2214
 4216SOL     OW19646   3.117   6.059   2.282 -0.3778  0.6518 -0.0134
 4216SOL    HW119647   3.071   6.145   2.260 -0.8980 -0.1047 -1.9838
 4216SOL    HW219648   3.195   6.046   2.221 -1.3747 -1.1198 -0.9740
 4217SOL     OW19649   4.275   5.926   3.355  0.0542 -0.7772  0.2800
 4217SOL    HW119650   4.335   5.861   3.401  2.6935  0.6124 -1.0948
 4217SOL    HW219651   4.274   6.012   3.407  0.7056 -0.1986 -0.6560
 4218SOL     OW19652   1.314   2.421   2.291  0.3003 -0.1713 -0.3787
 4218SOL    HW119653   1.316   2.321   2.296 -1.1140 -0.2240 -0.4540
 4218SOL    HW219654   1.375   2.460   2.359  2.9873 -1.1073 -2.1884
 4219SOL     OW19655   6.171   4.734   0.254  0.1178  0.6593  0.0765
 4219SOL    HW119656   6.143   4.638   0.261  0.6119  0.3653 -1.7621
 4219SOL    HW219657   6.094   4.793   0.278 -0.3609 -0.1907  0.6599
 4220SOL     OW19658   0.629   7.316   1.907 -0.0979  0.1004 -0.4637
 4220SOL    HW119659   0.679   7.344   1.989 -0.8490  1.7166 -0.5290
 4220SOL    HW219660   0.663   7.368   1.828 -1.6628  1.0247 -0.5524
 4221SOL     OW19661   5.930   2.376   5.046  0.4239 -0.0917  0.0916
 4221SOL    HW119662   5.858   2.330   5.097 -1.4761  1.1365 -1.4104
 4221SOL    HW219663   5.896   2.465   5.014  2.9507  0.9613  0.2392
 4222SOL     OW19664   0.424   6.635   4.962  0.0955  0.3688 -0.0666
 4222SOL    HW119665   0.513   6.589   4.968 -0.7796 -1.5391 -1.2063
 4222SOL    HW219666   0.393   6.660   5.053  0.1309 -2.2158  0.6669
 4223SOL     OW19667   0.895   1.564   7.077  0.0328 -0.0129  0.4323
 4223SOL    HW119668   0.834   1.485   7.087  0.2919 -0.0291  1.9000
 4223SOL    HW219669   0.989   1.537   7.101  0.0663  0.8204  1.2615
 4224SOL     OW19670   3.047   1.781   6.166  0.1396 -0.1847  0.7912
 4224SOL    HW119671   3.021   1.821   6.254  0.1349 -0.8952  1.1086
 4224SOL    HW219672   2.966   1.748   6.118  0.0235  1.0946  0.0750
 4225SOL     OW19673   5.799   4.210   6.187 -0.0483  0.4199  0.6483
 4225SOL    HW119674   5.745   4.133   6.153  0.0569  0.6206  0.0176
 4225SOL    HW219675   5.765   4.238   6.277 -0.3959 -0.0502  0.6624
 4226SOL     OW19676   1.600   2.413   0.460 -0.1965 -0.0257 -0.6493
 4226SOL    HW119677   1.590   2.384   0.365 -0.1292  0.5458 -0.8355
 4226SOL    HW219678   1.512   2.449   0.493 -0.2034 -0.1639 -0.5177
 4227SOL     OW19679   2.204   4.780   6.523 -0.3731  0.1325 -0.1152
 4227SOL    HW119680   2.143   4.706   6.551 -0.8073  0.7193  0.5055
 4227SOL    HW219681   2.298   4.746   6.520 -0.9693 -1.3671 -3.2556
 4228SOL     OW19682   6.963   0.561   0.901  0.1877  0.0695 -0.5968
 4228SOL    HW119683   6.992   0.579   0.995 -0.5737  0.2370 -0.3916
 4228SOL    HW219684   6.875   0.605   0.884  0.1922 -0.1893 -1.3049
 4229SOL     OW19685   6.438   7.198   0.599 -0.3382 -0.0701 -0.0778
 4229SOL    HW119686   6.431   7.213   0.698  0.0418 -0.1546 -0.0352
 4229SOL    HW219687   6.377   7.260   0.551 -0.9133 -0.3879  0.2386
 4230SOL     OW19688   7.332   2.887   1.976 -0.5083 -0.3099 -0.2589
 4230SOL    HW119689   7.263   2.849   1.915 -0.5728 -0.7050  0.0581
 4230SOL    HW219690   7.423   2.872   1.937 -0.6517  1.1311 -1.1854
 4231SOL     OW19691   3.480   6.631   5.517  0.4470  0.1541  0.0080
 4231SOL    HW119692   3.388   6.600   5.497  0.8631 -1.0599 -0.0436
 4231SOL    HW219693   3.483   6.667   5.611  0.5358 -2.3263  0.9904
 4232SOL     OW19694   4.478   1.868   1.838 -0.2897  0.5757  0.4393
 4232SOL    HW119695   4.519   1.949   1.796 -0.1973 -0.3390 -1.2848
 4232SOL    HW219696   4.385   1.855   1.803  0.3605 -1.1047 -0.7635
 4233SOL     OW19697   3.042   3.176   7.135  0.4259  0.0298 -0.2553
 4233SOL    HW119698   3.007   3.179   7.041 -0.8133  1.2806  0.2401
 4233SOL    HW219699   3.099   3.256   7.152 -0.3662  0.4388  0.4577
 4234SOL     OW19700   0.799   4.305   0.706  0.0575 -0.4191  0.6577
 4234SOL    HW119701   0.755   4.358   0.779 -0.4698 -0.0919  0.1106
 4234SOL    HW219702   0.886   4.268   0.739  0.4446  0.8129  1.0464
 4235SOL     OW19703   6.226   3.543   0.167  0.1083 -0.2626  0.3748
 4235SOL    HW119704   6.245   3.447   0.187  1.3618  0.3523  2.2063
 4235SOL    HW219705   6.142   3.570   0.214 -0.5475 -0.5814 -0.5824
 4236SOL     OW19706   0.200   0.853   0.608  0.1383 -0.0573  0.3320
 4236SOL    HW119707   0.262   0.932   0.609 -0.5016  0.4997 -1.2382
 4236SOL    HW219708   0.106   0.885   0.619  0.0146 -0.7837  1.4603
 4237SOL     OW19709   6.889   1.770   2.154  0.4804 -0.0202  0.0383
 4237SOL    HW119710   6.916   1.675   2.140  1.4066 -0.0789  2.0652
 4237SOL    HW219711   6.940   1.829   2.092 -0.0620 -0.8255 -1.1878
 4238SOL     OW19712   3.432   2.830   0.137 -0.2811 -0.7924 -0.2914
 4238SOL    HW119713   3.403   2.862   0.046 -0.5433  0.4697  0.2327
 4238SOL    HW219714   3.529   2.850   0.150 -1.1248  2.5975  1.2107
 4239SOL     OW19715   1.628   4.427   1.784 -0.5757  0.2406  0.4671
 4239SOL    HW119716   1.655   4.495   1.716  0.8331  0.4392  1.2082
 4239SOL    HW219717   1.530   4.435   1.802 -0.5614  1.5820  0.0059
 4240SOL     OW19718   6.311   0.413   5.086  0.2601 -0.2479 -0.2637
 4240SOL    HW119719   6.268   0.503   5.076  1.3769  0.2613 -0.4472
 4240SOL    HW219720   6.303   0.384   5.181 -0.1514  0.0136 -0.2136
 4241SOL     OW19721   1.440   2.041   7.042  0.5253 -0.4814  0.5046
 4241SOL    HW119722   1.386   2.032   7.125  0.1935  0.2651  0.3753
 4241SOL    HW219723   1.489   1.955   7.024 -0.3599 -1.0527  0.8013
 4242SOL     OW19724   6.802   1.986   1.415  0.1053  0.0146  0.2098
 4242SOL    HW119725   6.832   2.034   1.497 -2.1098 -2.0435  2.2855
 4242SOL    HW219726   6.823   2.042   1.334  1.5973  2.4223  2.2002
 4243SOL     OW19727   5.417   6.138   5.884 -0.2627  0.1798 -0.3309
 4243SOL    HW119728   5.454   6.071   5.948 -0.5105  2.1137  1.9397
 4243SOL    HW219729   5.468   6.135   5.798 -0.5920 -3.1869 -0.4452
 4244SOL     OW19730   5.936   4.002   4.513  0.1539  0.5692 -0.2459
 4244SOL    HW119731   5.893   3.914   4.491  0.3461 -0.2549  2.4211
 4244SOL    HW219732   6.025   3.984   4.556  0.6188  2.1126 -0.5556
 4245SOL     OW19733   4.332   4.865   3.098  0.3287  0.5450 -0.0122
 4245SOL    HW119734   4.305   4.777   3.059 -0.5729  0.3751  0.9892
 4245SOL    HW219735   4.334   4.934   3.026 -0.6246  0.0751 -0.4874
 4246SOL     OW19736   3.918   1.111   3.200  0.8894 -0.2195 -0.2537
 4246SOL    HW119737   3.838   1.120   3.260  0.7084  1.4933 -0.7070
 4246SOL    HW219738   3.910   1.029   3.144  0.2058 -0.8862  0.8261
 4247SOL     OW19739   1.074   2.076   0.023  0.2474 -0.2615 -0.3774
 4247SOL    HW119740   1.082   2.144  -0.050 -0.6645  0.7114  0.4095
 4247SOL    HW219741   1.125   1.994  -0.002  0.1940  0.1739 -1.9796
 4248SOL     OW19742   3.286   5.966   5.619 -0.1368  0.4281  0.3205
 4248SOL    HW119743   3.287   6.027   5.540 -1.1275  0.3159  0.2149
 4248SOL    HW219744   3.242   6.012   5.697  2.6883  1.3156  1.4659
 4249SOL     OW19745   3.036   2.270   6.173 -0.1224  0.1692  0.5982
 4249SOL    HW119746   3.057   2.238   6.266  1.9992 -1.5485 -0.4148
 4249SOL    HW219747   2.961   2.216   6.135 -0.6502  0.5289  1.1263
 4250SOL     OW19748   0.935   3.810   0.798 -0.0184 -0.2117 -0.1186
 4250SOL    HW119749   0.884   3.744   0.742 -1.5724  1.3148 -0.5465
 4250SOL    HW219750   1.023   3.829   0.755  0.0347 -1.2743 -0.4978
 4251SOL     OW19751   3.775   3.390   3.638  0.0244 -0.0425  0.2766
 4251SOL    HW119752   3.843   3.414   3.569 -0.0713  0.3794  0.3298
 4251SOL    HW219753   3.696   3.347   3.593 -0.9571  2.1018 -0.1334
 4252SOL     OW19754   1.090   4.754   1.748  0.6112  0.7577 -0.2518
 4252SOL    HW119755   1.138   4.832   1.789  1.2338 -1.2998  3.0458
 4252SOL    HW219756   1.015   4.726   1.807 -0.1510 -0.6450 -1.8471
 4253SOL     OW19757   4.859   1.210   0.722  0.3249  0.2596  0.2665
 4253SOL    HW119758   4.854   1.309   0.729  2.1186  0.3157  1.1439
 4253SOL    HW219759   4.831   1.181   0.630 -2.5433  1.3437  0.7403
 4254SOL     OW19760   5.244   6.184   6.551  0.0274 -0.5544  0.6502
 4254SOL    HW119761   5.222   6.251   6.481  0.0320 -0.9327  0.2886
 4254SOL    HW219762   5.270   6.232   6.635 -0.8723 -0.0940  0.6818
 4255SOL     OW19763   0.585   2.237   6.652  0.0901 -0.3550 -0.3023
 4255SOL    HW119764   0.592   2.295   6.733 -0.6543 -1.8174  0.8406
 4255SOL    HW219765   0.661   2.171   6.652  0.1207 -0.3231 -0.8172
 4256SOL     OW19766   4.935   4.529   2.547 -0.1232  0.0918  0.3834
 4256SOL    HW119767   5.025   4.574   2.543  0.9041 -1.9313  0.3387
 4256SOL    HW219768   4.937   4.456   2.615 -2.0738  0.7152  1.1504
 4257SOL     OW19769   0.783   4.211   7.183  0.1096  0.6836 -0.3878
 4257SOL    HW119770   0.826   4.123   7.161 -0.2683  0.5170 -0.4696
 4257SOL    HW219771   0.689   4.195   7.211  0.0688  1.0575 -0.3174
 4258SOL     OW19772   2.031   4.878   1.165  0.1451 -0.0781  0.0919
 4258SOL    HW119773   1.994   4.804   1.109 -3.2881 -0.3206  2.5754
 4258SOL    HW219774   2.095   4.840   1.231 -0.5205 -0.6381  0.4167
 4259SOL     OW19775   6.194   1.861   4.283 -0.0963  0.4126  0.2943
 4259SOL    HW119776   6.095   1.861   4.298 -0.2679  1.4790 -0.7394
 4259SOL    HW219777   6.213   1.896   4.191  1.3386  1.8622  1.1339
 4260SOL     OW19778   1.006   3.661   6.111  0.1918 -0.2917  0.7084
 4260SOL    HW119779   0.966   3.638   6.200 -0.4497  0.1340  0.5292
 4260SOL    HW219780   1.105   3.645   6.114  0.0685 -0.9592  1.2753
 4261SOL     OW19781   2.196   4.810   1.605 -0.0034  0.2768  0.3911
 4261SOL    HW119782   2.176   4.837   1.511 -0.5321 -0.4926  0.2747
 4261SOL    HW219783   2.156   4.878   1.668 -0.9031  0.0331  0.0939
 4262SOL     OW19784   0.101   4.112   5.314  0.1414  0.3975 -0.6018
 4262SOL    HW119785   0.087   4.185   5.381  1.1140 -0.3114  0.3769
 4262SOL    HW219786   0.191   4.071   5.327 -0.2876 -0.8021 -1.3417
 4263SOL     OW19787   5.487   3.564   0.061 -0.0305 -0.2670 -0.3184
 4263SOL    HW119788   5.445   3.653   0.077  0.2598 -0.0992 -0.4819
 4263SOL    HW219789   5.574   3.576   0.014  0.6662 -0.5458  0.8622
 4264SOL     OW19790   5.025   1.628   3.479 -0.5705 -0.0162 -0.4054
 4264SOL    HW119791   5.009   1.676   3.565  0.3306  0.7086 -0.6294
 4264SOL    HW219792   5.001   1.688   3.402  0.8737  0.2087 -0.6930
 4265SOL     OW19793   6.360   2.977   3.494 -0.3184 -0.2027 -0.5736
 4265SOL    HW119794   6.412   3.062   3.483  1.4583 -0.9983  1.4338
 4265SOL    HW219795   6.422   2.904   3.520 -2.1360 -1.7070 -0.4003
 4266SOL     OW19796   6.337   5.170   1.322  0.0600 -0.5296 -0.0773
 4266SOL    HW119797   6.380   5.200   1.408 -0.0178  0.4032 -0.3642
 4266SOL    HW219798   6.408   5.139   1.259  0.2098 -0.1810 -0.0821
 4267SOL     OW19799   4.309   1.603   3.411  0.6600  0.1790  0.3221
 4267SOL    HW119800   4.299   1.702   3.411 -2.6392 -0.0921  0.0843
 4267SOL    HW219801   4.397   1.578   3.372  0.2513  2.9080 -2.5261
 4268SOL     OW19802   4.113   6.293   0.756  0.0741  0.3128 -0.2937
 4268SOL    HW119803   4.164   6.373   0.724  1.6267 -0.5508 -0.0214
 4268SOL    HW219804   4.029   6.285   0.703  2.2452 -0.6965 -3.8034
 4269SOL     OW19805   2.854   4.497   4.739  0.0934  0.2098 -0.0360
 4269SOL    HW119806   2.893   4.429   4.801 -0.4817  0.5904  0.7410
 4269SOL    HW219807   2.759   4.515   4.764 -0.4089 -0.2547 -1.5351
 4270SOL     OW19808   4.389   4.370   1.170  0.0983  0.0601 -0.0857
 4270SOL    HW119809   4.345   4.432   1.104 -0.7154  1.2701  1.5737
 4270SOL    HW219810   4.370   4.275   1.143  0.2047  0.5264 -1.8774
 4271SOL     OW19811   0.284   0.157   1.636  0.0481  0.1530  0.3225
 4271SOL    HW119812   0.280   0.063   1.602 -0.6240 -0.0832  1.0220
 4271SOL    HW219813   0.243   0.219   1.569 -1.1735 -0.2939  0.6365
 4272SOL     OW19814   3.412   6.453   2.802 -0.1861  0.5708 -0.0033
 4272SOL    HW119815   3.440   6.363   2.769 -0.5853  0.1994  0.6612
 4272SOL    HW219816   3.413   6.518   2.726 -1.8251 -0.4453 -0.9237
 4273SOL     OW19817   0.203   5.233   5.847 -0.3301  0.7659 -0.0776
 4273SOL    HW119818   0.207   5.183   5.760  0.1044  0.3565  0.1759
 4273SOL    HW219819   0.239   5.325   5.834  0.8281  0.3180 -0.0615
 4274SOL     OW19820   6.007   6.514   7.065 -0.0671 -0.2602  0.1595
 4274SOL    HW119821   6.018   6.446   7.137 -0.8792 -0.5809 -0.0140
 4274SOL    HW219822   6.095   6.559   7.048  0.5203 -1.3998  0.1399
 4275SOL     OW19823   3.310   7.064   3.854  0.3960 -0.0194  0.1429
 4275SOL    HW119824   3.358   7.019   3.778 -1.7961 -0.4434 -1.0362
 4275SOL    HW219825   3.289   6.996   3.924  2.2131  0.3267  1.0565
 4276SOL     OW19826   6.241   6.190   3.119  0.0056  0.1865 -0.1416
 4276SOL    HW119827   6.314   6.257   3.137  0.5261 -0.4218  0.0210
 4276SOL    HW219828   6.263   6.104   3.164 -1.4477  0.3823  0.9641
 4277SOL     OW19829   3.876   4.050   4.346 -0.2061 -0.7745  0.1154
 4277SOL    HW119830   3.808   4.121   4.362  0.3478 -0.2744  0.3075
 4277SOL    HW219831   3.884   4.033   4.247 -0.3653 -0.5911  0.0705
 4278SOL     OW19832   6.765   3.450   4.230  0.0592 -0.1106  0.0569
 4278SOL    HW119833   6.727   3.539   4.257 -0.0409 -0.4153  0.9324
 4278SOL    HW219834   6.805   3.406   4.310 -0.2241 -1.0234 -0.3065
 4279SOL     OW19835   6.183   1.657   5.778  0.4195 -0.0589  0.5576
 4279SOL    HW119836   6.122   1.584   5.747  1.0824 -0.2265 -0.3708
 4279SOL    HW219837   6.173   1.670   5.876 -0.6310 -0.5350  0.5145
 4280SOL     OW19838   1.956   0.884   5.775 -0.3373  0.5441 -0.3483
 4280SOL    HW119839   1.990   0.791   5.762  2.0778  1.2932  0.5160
 4280SOL    HW219840   1.979   0.940   5.695 -1.3269  0.5542 -0.6371
 4281SOL     OW19841   4.184   7.094   4.941 -0.3903  0.0700  0.7021
 4281SOL    HW119842   4.242   7.121   4.864  0.6427  0.0947  1.4754
 4281SOL    HW219843   4.110   7.035   4.908 -1.7170  2.4978 -0.7621
 4282SOL     OW19844   6.659   6.402   5.907 -0.0056 -0.3993  0.2505
 4282SOL    HW119845   6.756   6.391   5.932 -0.1525  2.6416  2.4188
 4282SOL    HW219846   6.652   6.441   5.815  0.8241 -0.4582  0.1594
 4283SOL     OW19847   6.020   0.229   7.242 -0.3829  0.0227  0.1637
 4283SOL    HW119848   6.112   0.191   7.233 -0.2994 -0.0489  1.1806
 4283SOL    HW219849   6.026   0.318   7.289 -0.7492  0.4116 -0.5249
 4284SOL     OW19850   6.307   5.085   0.951  0.0043  0.2565  0.3639
 4284SOL    HW119851   6.304   5.063   1.049  1.4980 -1.2513  0.0758
 4284SOL    HW219852   6.313   5.185   0.940 -1.3321  0.5158  1.7751
 4285SOL     OW19853   5.370   5.634   6.859 -0.3185 -0.0419  0.0768
 4285SOL    HW119854   5.281   5.674   6.840 -0.0623  0.8285  0.6609
 4285SOL    HW219855   5.379   5.617   6.958 -0.9705 -2.8720 -0.2885
 4286SOL     OW19856   0.722   3.652   4.924 -0.4271  0.0945 -0.0378
 4286SOL    HW119857   0.651   3.699   4.870  0.7278  1.1181 -0.6871
 4286SOL    HW219858   0.742   3.563   4.884 -1.0516 -0.0243 -0.0884
 4287SOL     OW19859   6.749   3.756   7.047 -0.3308 -0.4183 -0.6378
 4287SOL    HW119860   6.679   3.743   6.976 -0.3070  1.3695 -1.0204
 4287SOL    HW219861   6.757   3.854   7.068  1.4090 -0.6902  0.0627
 4288SOL     OW19862   0.835   1.884   1.042 -0.6252 -0.4097 -0.2492
 4288SOL    HW119863   0.891   1.802   1.054 -0.9535 -0.4879  0.8651
 4288SOL    HW219864   0.878   1.944   0.974  0.6169 -0.6414  0.3098
 4289SOL     OW19865   1.122   4.600   2.406  0.1067  0.0212  0.4531
 4289SOL    HW119866   1.101   4.524   2.345 -1.8048  1.1813 -0.3824
 4289SOL    HW219867   1.218   4.626   2.396  0.1983 -0.8137 -0.8790
 4290SOL     OW19868   3.768   6.730   7.000  0.3979  0.2692 -0.1396
 4290SOL    HW119869   3.686   6.778   6.968 -0.5726 -0.0924  1.7322
 4290SOL    HW219870   3.834   6.797   7.034 -0.0708  0.4266  0.4721
 4291SOL     OW19871   5.514   5.532   1.667  0.2477 -0.6325  0.3635
 4291SOL    HW119872   5.561   5.596   1.607  1.0641 -2.2086 -0.7410
 4291SOL    HW219873   5.432   5.575   1.705 -0.4333  0.3321 -2.0771
 4292SOL     OW19874   6.469   3.448   1.490 -0.5518 -0.0411  0.6292
 4292SOL    HW119875   6.517   3.361   1.501  0.5079  0.5897  1.1435
 4292SOL    HW219876   6.508   3.515   1.553 -0.2139  1.2747 -0.9441
 4293SOL     OW19877   3.260   2.173   0.280 -0.0376  0.9115 -0.4174
 4293SOL    HW119878   3.171   2.199   0.318 -0.0347 -2.0977  1.8281
 4293SOL    HW219879   3.290   2.087   0.320  2.0540 -0.2371 -4.1416
 4294SOL     OW19880   2.802   7.275   6.288 -0.1638  0.2341 -0.4756
 4294SOL    HW119881   2.752   7.352   6.329 -1.6128 -1.1995  0.4938
 4294SOL    HW219882   2.877   7.248   6.349 -0.9447 -0.4687  0.1700
 4295SOL     OW19883   7.014   0.724   5.697 -0.6151 -0.2964  0.2095
 4295SOL    HW119884   7.087   0.771   5.747  0.3420 -0.5309 -0.9494
 4295SOL    HW219885   7.026   0.738   5.599 -1.0772 -1.8446 -0.0892
 4296SOL     OW19886   2.245   2.208   7.286 -0.6736  0.0007 -0.3648
 4296SOL    HW119887   2.167   2.238   7.340 -0.4513  0.8073 -0.4807
 4296SOL    HW219888   2.318   2.276   7.292  0.7367 -1.5813  1.2124
 4297SOL     OW19889   2.615   4.220   0.489  0.2416  0.6962 -0.1633
 4297SOL    HW119890   2.626   4.254   0.582 -0.6492  2.0662 -0.5443
 4297SOL    HW219891   2.698   4.170   0.462  0.5786  0.4497  1.2780
 4298SOL     OW19892   6.073   0.039   1.971 -0.6773  0.0170  0.5363
 4298SOL    HW119893   5.997  -0.005   2.020 -0.2533 -0.5789  0.6647
 4298SOL    HW219894   6.076   0.136   1.995 -2.9971  0.6225 -1.4524
 4299SOL     OW19895   5.930   0.747   6.675  0.0064 -0.6778  0.4273
 4299SOL    HW119896   5.948   0.744   6.576 -1.5048 -1.8434  0.1649
 4299SOL    HW219897   5.895   0.837   6.700  3.1397  0.5734  0.4140
 4300SOL     OW19898   3.693   0.124   2.339  0.4529  0.6554  0.0801
 4300SOL    HW119899   3.620   0.186   2.311 -0.4056 -0.4501 -0.1632
 4300SOL    HW219900   3.747   0.167   2.412  1.3376  2.6302 -1.6870
 4301SOL     OW19901   5.618   0.814   5.147 -0.3394 -0.4804 -0.2497
 4301SOL    HW119902   5.557   0.778   5.218 -0.6969  1.0601  0.2513
 4301SOL    HW219903   5.711   0.819   5.183 -0.6883  1.2022  0.4595
 4302SOL     OW19904   6.741   5.414   4.481 -0.1839  0.0760  0.1515
 4302SOL    HW119905   6.752   5.469   4.399  0.5226 -0.2783  0.0018
 4302SOL    HW219906   6.644   5.401   4.500 -0.3495  0.2172 -0.5883
 4303SOL     OW19907   5.558   2.719   0.162 -0.0829  0.4402  0.4028
 4303SOL    HW119908   5.488   2.665   0.209 -0.0844  0.0155 -0.0804
 4303SOL    HW219909   5.600   2.782   0.226 -1.2400  1.0345  0.5905
 4304SOL     OW19910   4.714   1.677   0.275  0.5331  0.5450  0.3747
 4304SOL    HW119911   4.805   1.683   0.234  0.0854 -1.0087 -0.8752
 4304SOL    HW219912   4.680   1.769   0.294  1.2913  1.2437 -1.5352
 4305SOL     OW19913   4.312   6.405   4.119  0.1671 -0.4831  0.0295
 4305SOL    HW119914   4.300   6.468   4.043 -0.2213  0.1692  0.6229
 4305SOL    HW219915   4.324   6.457   4.204  0.0725 -1.2000  0.4879
 4306SOL     OW19916   7.239   7.157   5.422  0.3087 -0.2167  0.1562
 4306SOL    HW119917   7.177   7.208   5.482  0.0047 -0.6347  0.2037
 4306SOL    HW219918   7.307   7.219   5.383  0.7221  0.0026  1.2073
 4307SOL     OW19919   0.328   1.419   2.845  0.5341 -0.4666 -0.9164
 4307SOL    HW119920   0.254   1.460   2.793  0.3257 -0.9468 -1.0050
 4307SOL    HW219921   0.399   1.386   2.782  0.2312 -1.1472 -0.9126
 4308SOL     OW19922   0.679   6.945   0.664 -0.0382  0.0079  0.3111
 4308SOL    HW119923   0.632   7.001   0.733 -0.2310 -0.1084  0.2751
 4308SOL    HW219924   0.776   6.969   0.662 -0.5130  1.8838 -1.2411
 4309SOL     OW19925   3.520   4.874   0.928 -0.5524  0.1797 -0.7388
 4309SOL    HW119926   3.518   4.845   0.832 -2.2363 -0.7315 -0.4536
 4309SOL    HW219927   3.584   4.816   0.978  0.9624  1.1900 -1.4484
 4310SOL     OW19928   3.227   0.054   0.613 -0.2646 -0.1458 -0.0279
 4310SOL    HW119929   3.191  -0.007   0.543  0.9140 -3.3070  2.0284
 4310SOL    HW219930   3.179   0.039   0.699  1.8036 -0.0270  1.1732
 4311SOL     OW19931   5.380   4.900   7.056 -0.0989  0.0342  0.5522
 4311SOL    HW119932   5.343   4.808   7.072  0.3659  0.0044  1.5096
 4311SOL    HW219933   5.383   4.918   6.958 -2.6900  0.0448  0.4285
 4312SOL     OW19934   5.465   0.554   1.016 -0.5840 -0.0912 -1.0180
 4312SOL    HW119935   5.529   0.492   0.971 -2.4312 -2.7543 -0.1347
 4312SOL    HW219936   5.444   0.630   0.955  3.1409  0.6864 -1.4185
 4313SOL     OW19937   2.864   5.803   1.936 -0.4124  0.6558 -0.0944
 4313SOL    HW119938   2.890   5.711   1.907  0.8910  1.0258 -0.1440
 4313SOL    HW219939   2.903   5.821   2.027 -2.6365  0.2982  0.9611
 4314SOL     OW19940   6.035   4.507   5.862  1.0192  0.1660  0.2946
 4314SOL    HW119941   6.062   4.603   5.861  2.5957 -0.2575  0.2019
 4314SOL    HW219942   6.095   4.455   5.801  1.0374 -1.0856  1.3530
 4315SOL     OW19943   6.640   0.017   0.595 -0.2719 -0.1169  0.4651
 4315SOL    HW119944   6.570   0.087   0.581  0.1200  0.4094  1.1047
 4315SOL    HW219945   6.596  -0.071   0.614 -0.7630  0.3493  1.5346
 4316SOL     OW19946   6.875   3.445   2.559  0.4534  0.3536 -0.1738
 4316SOL    HW119947   6.826   3.499   2.628 -1.2388 -0.2082 -0.9063
 4316SOL    HW219948   6.945   3.389   2.604 -0.6290 -0.0047  1.1007
 4317SOL     OW19949   7.022   0.222   2.183 -0.3641 -0.0516 -0.0707
 4317SOL    HW119950   7.031   0.215   2.282 -0.2996  0.9197 -0.0077
 4317SOL    HW219951   6.929   0.198   2.156 -0.6817  0.7118  0.3286
 4318SOL     OW19952   2.435   1.333   5.684  0.6783  0.1251  0.1324
 4318SOL    HW119953   2.371   1.303   5.613  1.1727  0.5124 -0.4832
 4318SOL    HW219954   2.421   1.279   5.767 -0.8131  0.5694  0.1833
 4319SOL     OW19955   5.353   1.237   1.543  0.1388 -0.0879 -0.2095
 4319SOL    HW119956   5.406   1.153   1.537 -0.0165 -0.1805 -0.2961
 4319SOL    HW219957   5.414   1.316   1.547  0.2565 -0.0614 -2.3513
 4320SOL     OW19958   5.334   3.633   5.095  0.2495 -0.4169  0.8082
 4320SOL    HW119959   5.368   3.578   5.018  0.8571 -0.0405  0.8008
 4320SOL    HW219960   5.393   3.713   5.106 -1.8237  1.3479 -0.5165
 4321SOL     OW19961   4.620   5.929   7.038  0.5093  0.1677 -0.0383
 4321SOL    HW119962   4.533   5.975   7.055 -0.6921 -1.7947 -0.7495
 4321SOL    HW219963   4.681   5.944   7.116 -1.1452  0.0198  1.3050
 4322SOL     OW19964   5.411   6.804   1.778 -0.9464  0.3576  0.1156
 4322SOL    HW119965   5.318   6.768   1.774 -0.3728 -1.3874  1.2867
 4322SOL    HW219966   5.473   6.731   1.808  1.0483  1.0461 -2.1889
 4323SOL     OW19967   2.442   3.029   1.138 -0.5839 -0.1546  0.1502
 4323SOL    HW119968   2.541   3.045   1.133 -0.3421 -1.6412  0.0043
 4323SOL    HW219969   2.421   2.967   1.213 -1.3583 -0.2490 -0.1350
 4324SOL     OW19970   6.136   2.827   2.448 -0.2632 -0.4348  0.1774
 4324SOL    HW119971   6.096   2.792   2.533 -1.3888  1.3153  0.3948
 4324SOL    HW219972   6.208   2.893   2.470 -0.5687  0.0341 -0.2136
 4325SOL     OW19973   3.526   6.108   3.080  0.0349  0.3045 -0.2611
 4325SOL    HW119974   3.470   6.047   3.137  1.0208 -1.1483 -0.8219
 4325SOL    HW219975   3.466   6.166   3.024 -0.9200 -1.3653 -0.9918
 4326SOL     OW19976   1.642   0.979   2.441 -0.6208 -0.4966 -0.1533
 4326SOL    HW119977   1.729   1.022   2.418 -1.6263  0.8182 -1.5956
 4326SOL    HW219978   1.600   0.943   2.358 -0.5172 -2.9497  0.8200
 4327SOL     OW19979   5.963   4.124   6.486  0.0908  0.6821 -0.0445
 4327SOL    HW119980   5.932   4.030   6.479  0.6588  0.4081  0.9848
 4327SOL    HW219981   5.884   4.185   6.485 -0.2507  0.2215 -1.0854
 4328SOL     OW19982   5.208   3.679   4.351 -0.4071 -0.5477  0.0425
 4328SOL    HW119983   5.226   3.693   4.449 -2.6340 -2.1524  0.7179
 4328SOL    HW219984   5.139   3.744   4.320 -2.7662 -2.6950  0.5894
 4329SOL     OW19985   4.298   4.075   2.907 -0.1659 -0.2411  0.4352
 4329SOL    HW119986   4.394   4.106   2.908 -0.0801 -0.5111  2.1576
 4329SOL    HW219987   4.295   3.975   2.910 -0.4913 -0.2983 -1.4591
 4330SOL     OW19988   3.902   5.366   6.676  0.4335 -0.1394 -0.7121
 4330SOL    HW119989   3.805   5.389   6.681  0.4706  0.0353 -0.8195
 4330SOL    HW219990   3.918   5.305   6.599  0.9438  2.4841 -2.7444
 4331SOL     OW19991   7.022   2.621   5.059  0.2708 -0.6927  0.2265
 4331SOL    HW119992   7.021   2.627   4.959 -0.1469 -1.7798  0.1515
 4331SOL    HW219993   7.116   2.634   5.092  0.0152  2.3469 -0.0895
 4332SOL     OW19994   5.894   1.975   5.077 -0.0667 -0.1021  0.4030
 4332SOL    HW119995   5.823   2.002   5.012  0.9055  0.9632 -0.2133
 4332SOL    HW219996   5.855   1.909   5.142 -1.1631 -0.8246 -0.9502
 4333SOL     OW19997   1.427   1.915   7.349  0.5252 -0.3037 -0.1335
 4333SOL    HW119998   1.522   1.945   7.345  0.5030 -0.3190 -0.7173
 4333SOL    HW219999   1.417   1.827   7.302  0.1516 -0.1217 -0.3961
 4334SOL     OW20000   5.746   5.906   1.113  0.7968  0.4237  0.1440
 4334SOL    HW120001   5.798   5.955   1.182  0.7711  0.6093  0.0323
 4334SOL    HW220002   5.667   5.960   1.086  0.9492  0.4631 -0.2181
 4335SOL     OW20003   1.678   6.235   7.032  0.0918 -0.2660 -0.3238
 4335SOL    HW120004   1.630   6.202   7.113  0.5257 -1.1015 -0.4002
 4335SOL    HW220005   1.673   6.167   6.960  1.3628 -0.3552 -0.3475
 4336SOL     OW20006   3.545   5.580   0.435 -0.0386 -0.2273  0.1509
 4336SOL    HW120007   3.540   5.487   0.400 -0.9083  0.0590 -0.5172
 4336SOL    HW220008   3.457   5.626   0.420  0.4336  0.7497  0.3280
 4337SOL     OW20009   3.542   1.251   2.927 -0.0457  0.7251 -0.2220
 4337SOL    HW120010   3.578   1.290   3.012 -0.6495 -0.8609  0.7713
 4337SOL    HW220011   3.606   1.271   2.853  1.7285  0.0335  1.0652
 4338SOL     OW20012   3.327   0.836   4.446 -0.4136  0.3192  0.8336
 4338SOL    HW120013   3.412   0.886   4.459 -0.7885  0.7963  1.5260
 4338SOL    HW220014   3.284   0.819   4.535 -0.8547 -0.2411  0.5204
 4339SOL     OW20015   6.094   0.167   1.109  0.1084  0.0333  0.1802
 4339SOL    HW120016   6.066   0.166   1.205  1.2370  0.4643  0.5263
 4339SOL    HW220017   6.189   0.136   1.102 -1.2418 -4.1070 -1.2541
 4340SOL     OW20018   0.171   7.204   2.730 -0.5854 -0.1417 -1.0146
 4340SOL    HW120019   0.182   7.233   2.825 -0.9950 -0.7061 -0.7940
 4340SOL    HW220020   0.143   7.108   2.727 -0.7152 -0.0873 -1.6987
 4341SOL     OW20021   1.802   7.249   1.660 -0.1593 -0.0169  0.1688
 4341SOL    HW120022   1.759   7.165   1.691  2.0563 -0.9736  0.7266
 4341SOL    HW220023   1.774   7.325   1.719  0.5045 -1.0004  1.7496
 4342SOL     OW20024   4.187   0.525   0.183  0.1351 -0.1182 -0.0033
 4342SOL    HW120025   4.132   0.608   0.169 -0.9562 -0.3833  2.4597
 4342SOL    HW220026   4.283   0.550   0.191  0.0292  0.7068 -1.1541
 4343SOL     OW20027   5.053   6.254   4.418 -0.3822  0.7320  0.5552
 4343SOL    HW120028   4.994   6.247   4.337  0.0217  1.0096  0.2304
 4343SOL    HW220029   5.025   6.186   4.486 -0.3413  0.0888 -0.0657
 4344SOL     OW20030   5.202   3.610   2.065 -0.2300  0.3655  0.1147
 4344SOL    HW120031   5.156   3.683   2.014  1.2286  0.4425 -1.1210
 4344SOL    HW220032   5.205   3.635   2.162 -0.6420  1.4868 -0.1470
 4345SOL     OW20033   5.303   5.025   4.480  0.0855 -0.0977 -0.0216
 4345SOL    HW120034   5.308   4.977   4.393  1.1421 -0.0744  0.0221
 4345SOL    HW220035   5.236   4.981   4.540  0.3797 -0.9471 -0.3232
 4346SOL     OW20036   4.858   1.594   6.805  0.0664  0.0698  0.1406
 4346SOL    HW120037   4.866   1.561   6.711 -0.4817  0.0900  0.0879
 4346SOL    HW220038   4.935   1.655   6.825  0.6469 -0.6021 -0.0179
 4347SOL     OW20039   2.115   4.727   3.702  0.5118  0.3414 -0.2533
 4347SOL    HW120040   2.051   4.708   3.628 -0.7521  0.9942  0.6409
 4347SOL    HW220041   2.163   4.814   3.685  0.4973  0.3021 -0.4856
 4348SOL     OW20042   0.418   0.431   1.176 -0.7979  0.6421  0.8245
 4348SOL    HW120043   0.499   0.471   1.134 -0.6189  0.1697  0.7238
 4348SOL    HW220044   0.414   0.457   1.272  2.1045 -3.3383  2.1283
 4349SOL     OW20045   4.080   4.886   7.013 -0.0887 -0.3102 -0.1932
 4349SOL    HW120046   4.012   4.925   6.952  0.3590  3.1619  1.4319
 4349SOL    HW220047   4.172   4.914   6.984  0.4811 -2.3555 -0.5065
 4350SOL     OW20048   3.596   5.016   6.563 -0.1524 -0.0866  0.1145
 4350SOL    HW120049   3.626   5.097   6.512  1.6503 -0.4918  0.4713
 4350SOL    HW220050   3.587   5.040   6.660  2.8718 -0.8787  0.6443
 4351SOL     OW20051   5.063   5.517   5.381 -0.0163  0.2377 -0.8348
 4351SOL    HW120052   5.093   5.422   5.392 -1.9783 -0.3206 -0.0458
 4351SOL    HW220053   5.006   5.524   5.299 -1.8506  0.1982  0.4001
 4352SOL     OW20054   2.379   1.563   3.273 -1.0774  0.5820 -0.3532
 4352SOL    HW120055   2.416   1.470   3.276 -0.4947  0.7786 -1.3769
 4352SOL    HW220056   2.437   1.623   3.329 -0.5979  0.6240 -0.8891
 4353SOL     OW20057   4.116   5.262   7.015 -0.6866 -0.4220  0.5021
 4353SOL    HW120058   4.139   5.225   6.925  0.0217  0.7356  0.1944
 4353SOL    HW220059   4.045   5.205   7.057 -0.0497 -1.7604 -0.1997
 4354SOL     OW20060   2.190   3.562   0.254 -0.0249  0.5751 -0.3858
 4354SOL    HW120061   2.122   3.531   0.321 -3.1829  1.1469 -3.1898
 4354SOL    HW220062   2.175   3.659   0.233  0.7783  0.3537 -2.0828
 4355SOL     OW20063   5.172   2.264   5.816 -0.1311  0.1879  0.1501
 4355SOL    HW120064   5.124   2.253   5.903 -0.7278  0.1088 -0.1829
 4355SOL    HW220065   5.254   2.207   5.816  0.0339  0.4219  0.7755
 4356SOL     OW20066   1.649   3.638   4.604 -0.5428  0.1947  0.1855
 4356SOL    HW120067   1.656   3.566   4.674 -1.3454  2.2907  2.4860
 4356SOL    HW220068   1.736   3.685   4.595 -0.4343 -0.0854 -0.2775
 4357SOL     OW20069   4.940   5.180   5.169  0.4512 -0.4712 -0.1154
 4357SOL    HW120070   4.948   5.108   5.100 -0.3606 -0.2427 -0.4526
 4357SOL    HW220071   4.886   5.146   5.246  1.2931 -0.7013  0.3780
 4358SOL     OW20072   5.016   7.224   5.486  0.7922  0.2949 -0.5132
 4358SOL    HW120073   4.997   7.191   5.578 -0.0225 -0.7749 -1.0542
 4358SOL    HW220074   5.115   7.235   5.474  1.0164 -1.2094 -0.0602
 4359SOL     OW20075   3.693   7.184   1.232  0.5744  0.2321  0.0615
 4359SOL    HW120076   3.739   7.096   1.246 -1.6936 -1.0537 -0.2824
 4359SOL    HW220077   3.689   7.204   1.134  1.1070  0.7178  0.1422
 4360SOL     OW20078   2.214   4.439   0.068 -0.6234 -0.0752  0.1524
 4360SOL    HW120079   2.255   4.384  -0.005 -0.1759 -1.2336  1.2500
 4360SOL    HW220080   2.140   4.494   0.031  0.0140 -0.1632 -1.2970
 4361SOL     OW20081   3.393   6.256   5.451 -0.2149 -0.0422  0.0084
 4361SOL    HW120082   3.493   6.258   5.451 -0.1879 -0.6415 -1.8832
 4361SOL    HW220083   3.358   6.322   5.386 -1.0344 -0.6831 -0.2142
 4362SOL     OW20084   5.376   4.951   5.183  0.3167 -0.6065  0.1335
 4362SOL    HW120085   5.301   5.018   5.178  0.6089 -0.2223  0.8798
 4362SOL    HW220086   5.459   4.991   5.145  0.8252 -0.0717  1.7736
 4363SOL     OW20087   1.082   3.317   3.862  0.5365  0.5744  0.3413
 4363SOL    HW120088   1.137   3.319   3.945  1.5773 -0.7178 -0.3135
 4363SOL    HW220089   1.078   3.409   3.823 -1.3586  1.5618  2.6952
 4364SOL     OW20090   6.255   0.656   4.313 -0.6153  0.2914  0.4022
 4364SOL    HW120091   6.169   0.607   4.325  0.2309 -0.6817  2.7966
 4364SOL    HW220092   6.282   0.699   4.400  1.5380  0.1920 -0.1769
 4365SOL     OW20093   5.047   3.333   7.270 -0.3551  0.1122 -0.1926
 4365SOL    HW120094   5.142   3.330   7.301 -0.3306 -2.6118 -0.3993
 4365SOL    HW220095   5.040   3.394   7.191  0.8620  1.6884  0.8586
 4366SOL     OW20096   3.556   5.168   4.216  0.1326 -0.7606  0.0086
 4366SOL    HW120097   3.506   5.249   4.245 -0.0778 -0.7175 -0.4588
 4366SOL    HW220098   3.510   5.086   4.251  0.4535 -0.6685  0.6389
 4367SOL     OW20099   4.966   1.243   7.082  0.0343  0.2189 -0.1425
 4367SOL    HW120100   4.962   1.172   7.152 -1.2168  0.6591  0.2498
 4367SOL    HW220101   5.061   1.270   7.068  0.4563 -1.0952  0.1437
 4368SOL     OW20102   1.312   4.192   1.083 -0.9738 -0.3359 -0.3140
 4368SOL    HW120103   1.264   4.138   1.014 -0.8246 -0.9871  0.0866
 4368SOL    HW220104   1.387   4.138   1.121 -2.0717 -0.6029  1.5324
 4369SOL     OW20105   0.197   4.737   1.226  0.0431  0.4294  0.5028
 4369SOL    HW120106   0.212   4.716   1.129 -0.5149  1.2902  0.2261
 4369SOL    HW220107   0.099   4.744   1.244  0.0491 -1.6534  1.5559
 4370SOL     OW20108   1.282   4.222   0.056 -0.1459 -0.0547  0.3091
 4370SOL    HW120109   1.343   4.260  -0.014 -0.3001  1.1391  0.8090
 4370SOL    HW220110   1.336   4.196   0.136 -0.0296 -0.9760 -0.0653
 4371SOL     OW20111   1.094   5.778   7.235 -0.8400  0.1622 -0.3753
 4371SOL    HW120112   1.043   5.721   7.171 -0.2668  0.0609 -0.7545
 4371SOL    HW220113   1.132   5.857   7.186  1.6514 -1.1767 -0.7272
 4372SOL     OW20114   2.193   1.478   1.584 -0.6617  0.7985 -0.1697
 4372SOL    HW120115   2.232   1.414   1.649  0.2657  2.0627  0.5308
 4372SOL    HW220116   2.121   1.432   1.530 -0.6369 -0.5505  0.9396
 4373SOL     OW20117   2.070   4.439   3.359  0.1577 -0.4511  0.4356
 4373SOL    HW120118   2.073   4.394   3.448 -0.1701 -1.7235 -0.1906
 4373SOL    HW220119   2.105   4.377   3.289 -0.1794  0.3145 -0.4168
 4374SOL     OW20120   3.708   5.496   7.014 -0.0648  0.7443  0.6456
 4374SOL    HW120121   3.708   5.592   7.040 -0.7628  1.3544 -1.5077
 4374SOL    HW220122   3.802   5.466   6.997 -0.0203  1.6747 -0.8452
 4375SOL     OW20123   6.442   7.129   6.506 -0.4586 -0.6499  0.1628
 4375SOL    HW120124   6.537   7.100   6.513  0.2276  1.5765  0.7548
 4375SOL    HW220125   6.418   7.183   6.587 -1.3697  1.1030 -1.2459
 4376SOL     OW20126   6.524   4.665   4.254  0.0130 -0.0001 -0.2782
 4376SOL    HW120127   6.437   4.686   4.208 -0.8797  0.4663  1.5915
 4376SOL    HW220128   6.581   4.612   4.192 -0.6715  1.6328 -2.3957
 4377SOL     OW20129   7.319   0.454   0.902 -0.3073  0.1773 -0.2156
 4377SOL    HW120130   7.324   0.375   0.840 -1.8682 -1.0529  1.1607
 4377SOL    HW220131   7.285   0.533   0.851 -0.2940 -0.4664 -1.2598
 4378SOL     OW20132   2.713   5.265   0.547 -0.3388 -0.3142 -0.5974
 4378SOL    HW120133   2.675   5.312   0.467 -0.0968  1.1337  0.1104
 4378SOL    HW220134   2.669   5.176   0.558 -0.3376 -0.5607 -2.3675
 4379SOL     OW20135   7.341   0.242   0.732 -0.3750  0.1681 -0.1034
 4379SOL    HW120136   7.422   0.231   0.675  0.4907 -0.3265  1.1868
 4379SOL    HW220137   7.288   0.157   0.731  0.2517 -0.2332  0.7493
 4380SOL     OW20138   6.431   3.425   1.096 -1.1086 -0.0622 -0.3901
 4380SOL    HW120139   6.393   3.354   1.155 -0.8036 -0.1213 -0.2631
 4380SOL    HW220140   6.527   3.440   1.119 -1.2659  0.6453 -0.1655
 4381SOL     OW20141   7.342   4.960   0.137  0.4507 -0.2023  0.4201
 4381SOL    HW120142   7.357   5.031   0.206  1.8745 -0.2908  0.2195
 4381SOL    HW220143   7.327   4.872   0.183  0.5304 -0.1066  0.6307
 4382SOL     OW20144   4.813   0.956   1.453 -0.0015 -0.0782  0.0400
 4382SOL    HW120145   4.748   1.032   1.450 -0.5844 -0.6001 -0.6869
 4382SOL    HW220146   4.831   0.932   1.549  0.3389  1.0988  0.2787
 4383SOL     OW20147   4.438   2.928   3.637 -0.1256  0.0449  0.2358
 4383SOL    HW120148   4.514   2.971   3.588  0.7045 -0.7485  0.7992
 4383SOL    HW220149   4.394   2.861   3.578  1.8327 -2.0081  1.0279
 4384SOL     OW20150   0.355   0.151   1.899 -0.2193 -0.7868 -0.1399
 4384SOL    HW120151   0.332   0.164   1.802 -0.7661 -1.6501 -0.1265
 4384SOL    HW220152   0.384   0.057   1.915  2.2042 -0.0402  0.0910
 4385SOL     OW20153   4.001   1.380   3.079 -0.5629  0.2310 -0.0917
 4385SOL    HW120154   4.096   1.386   3.110 -1.0797  0.3588  1.4868
 4385SOL    HW220155   3.956   1.305   3.126 -0.8583 -0.7839 -1.9285
 4386SOL     OW20156   2.933   4.103   3.625 -0.1312  0.0186 -0.3331
 4386SOL    HW120157   2.854   4.145   3.579  0.3381  1.3400  0.0382
 4386SOL    HW220158   2.901   4.038   3.693 -0.9809  2.1783  1.3916
 4387SOL     OW20159   4.702   6.600   4.495 -0.1321  0.0870  0.0483
 4387SOL    HW120160   4.694   6.699   4.501  1.7701  0.1177  3.0581
 4387SOL    HW220161   4.645   6.557   4.565  0.3823 -0.8620 -0.1034
 4388SOL     OW20162   0.444   4.405   7.292  0.4404 -0.8425 -0.0740
 4388SOL    HW120163   0.470   4.309   7.283  2.2516 -0.3652 -0.0160
 4388SOL    HW220164   0.495   4.447   7.367 -0.8830 -0.0163  0.3765
 4389SOL     OW20165   3.030   6.403   2.522 -0.2660 -0.1064  0.5751
 4389SOL    HW120166   2.996   6.429   2.432 -0.1148 -1.4231  0.1240
 4389SOL    HW220167   2.957   6.412   2.590 -1.1951 -1.7872 -0.1744
 4390SOL     OW20168   5.714   3.664   7.307 -0.0010  0.1543 -0.3243
 4390SOL    HW120169   5.729   3.745   7.364 -0.3801  0.3307 -0.4720
 4390SOL    HW220170   5.802   3.622   7.283  0.1087 -0.9761  1.9108
 4391SOL     OW20171   2.626   0.158   3.696  0.5985  0.2344  0.6429
 4391SOL    HW120172   2.593   0.064   3.691 -0.2237  0.6107 -1.1802
 4391SOL    HW220173   2.725   0.158   3.714  0.5949 -0.9696  0.6693
 4392SOL     OW20174   1.389   2.373   6.319 -0.1244  0.0002 -0.2083
 4392SOL    HW120175   1.398   2.451   6.257  2.0526  0.7669  1.0049
 4392SOL    HW220176   1.335   2.401   6.399  0.2574  0.1339  0.0046
 4393SOL     OW20177   3.702   5.021   3.504 -1.2241 -0.2788  0.0742
 4393SOL    HW120178   3.753   5.106   3.523 -0.5307 -0.4750 -0.8628
 4393SOL    HW220179   3.746   4.945   3.553  0.9274 -0.8919 -2.7094
 4394SOL     OW20180   2.933   1.598   0.459  0.4031  0.0268  0.4798
 4394SOL    HW120181   3.022   1.628   0.493  0.3870  0.1760  0.3913
 4394SOL    HW220182   2.867   1.599   0.534  1.1046 -2.7091  1.1927
 4395SOL     OW20183   2.723   1.882   1.254  0.1512  0.2053  0.1835
 4395SOL    HW120184   2.637   1.831   1.256  0.2272  0.0167 -1.0030
 4395SOL    HW220185   2.705   1.975   1.222  0.0722  0.8399  1.9761
 4396SOL     OW20186   5.874   2.931   1.183  0.6958  0.1860  0.1048
 4396SOL    HW120187   5.917   3.021   1.191 -0.7181  0.7242  1.9562
 4396SOL    HW220188   5.924   2.866   1.240 -0.4723  0.6578  1.7105
 4397SOL     OW20189   0.934   5.292   4.819  0.5346  0.6216  0.3731
 4397SOL    HW120190   0.974   5.263   4.733  1.6316  0.2616  1.0010
 4397SOL    HW220191   0.948   5.222   4.889  0.9694  1.5484  1.2343
 4398SOL     OW20192   0.954   6.291   6.699 -0.6135 -0.0239  0.3999
 4398SOL    HW120193   0.997   6.360   6.641 -0.0355 -0.5619  0.1853
 4398SOL    HW220194   0.995   6.295   6.791 -2.3493  1.6280  1.1350
 4399SOL     OW20195   1.712   4.098   7.355 -0.5070  0.1064  0.8865
 4399SOL    HW120196   1.672   4.028   7.414  2.4246 -2.2960  0.1618
 4399SOL    HW220197   1.797   4.133   7.397 -0.6725  1.5056  0.1096
 4400SOL     OW20198   5.745   2.790   5.067 -0.2996 -0.0752 -0.1890
 4400SOL    HW120199   5.701   2.816   5.153  1.9601 -0.0460  1.0002
 4400SOL    HW220200   5.723   2.695   5.045 -0.5352 -0.2197  0.6523
 4401SOL     OW20201   6.156   6.106   3.447  0.2801  0.2229 -0.3574
 4401SOL    HW120202   6.231   6.056   3.403  0.1917  2.6866 -3.4343
 4401SOL    HW220203   6.076   6.105   3.387 -0.2857  2.5052  0.3176
 4402SOL     OW20204   0.967   5.397   7.351  0.3265 -0.1442  0.7151
 4402SOL    HW120205   1.049   5.393   7.409  0.7083  1.4662  0.3020
 4402SOL    HW220206   0.893   5.443   7.400 -0.3786 -1.6290  1.1011
 4403SOL     OW20207   3.173   5.263   5.506 -0.0287 -0.4535 -0.5704
 4403SOL    HW120208   3.247   5.260   5.572 -1.5259 -1.0044  1.1294
 4403SOL    HW220209   3.210   5.260   5.413  2.1558  1.2957  0.2054
 4404SOL     OW20210   1.776   3.450   0.567 -0.0395  0.5087 -0.3762
 4404SOL    HW120211   1.714   3.477   0.494 -0.2745 -0.0399 -0.3832
 4404SOL    HW220212   1.765   3.352   0.586  1.7233  0.1249 -1.2420
 4405SOL     OW20213   0.058   4.832   4.680  0.7342  0.8379 -0.3444
 4405SOL    HW120214   0.037   4.806   4.586 -1.2715  1.0170  0.0224
 4405SOL    HW220215   0.062   4.750   4.737 -2.2594  0.9655  0.1723
 4406SOL     OW20216   5.135   0.857   4.968  0.3258 -0.2303 -1.1742
 4406SOL    HW120217   5.173   0.825   5.055 -1.2116  1.9779  0.3762
 4406SOL    HW220218   5.035   0.861   4.975  0.2146  0.3636 -2.9126
 4407SOL     OW20219   5.639   2.248   0.491 -0.0038  0.3436 -0.6679
 4407SOL    HW120220   5.624   2.242   0.589 -0.8911  0.8069 -0.7710
 4407SOL    HW220221   5.657   2.343   0.466  2.1041 -0.0375 -0.6987
 4408SOL     OW20222   5.437   2.986   0.739  0.5562 -0.7282 -0.3917
 4408SOL    HW120223   5.358   2.934   0.772 -0.9770  1.2502 -0.8593
 4408SOL    HW220224   5.434   2.990   0.639 -0.2364  1.6074 -0.2918
 4409SOL     OW20225   1.916   2.602   6.813  0.0115  0.0340  0.3703
 4409SOL    HW120226   1.979   2.605   6.735  0.6582  1.3969  0.9298
 4409SOL    HW220227   1.918   2.510   6.853  1.8667  0.1250  0.5430
 4410SOL     OW20228   1.382   0.621   2.681 -0.0723  0.1862 -0.2223
 4410SOL    HW120229   1.328   0.565   2.619 -0.4508  0.2283  0.0708
 4410SOL    HW220230   1.396   0.573   2.767  0.5347  0.0896 -0.3755
 4411SOL     OW20231   0.007   3.592   2.380  0.3999  0.3949  0.3114
 4411SOL    HW120232  -0.071   3.561   2.434  0.6599 -1.4161 -0.3320
 4411SOL    HW220233   0.006   3.546   2.291  2.7970 -0.4539  0.7004
 4412SOL     OW20234   2.076   0.630   5.762 -0.1654 -0.3085  0.2069
 4412SOL    HW120235   2.156   0.668   5.716 -0.3069  0.2460  0.4161
 4412SOL    HW220236   2.098   0.612   5.858 -0.2470 -0.3035  0.2265
 4413SOL     OW20237   4.750   5.618   6.821 -0.5562  0.2057  0.1513
 4413SOL    HW120238   4.654   5.611   6.847 -0.2391 -1.7546  0.9091
 4413SOL    HW220239   4.758   5.604   6.722 -1.0645  0.4442  0.0751
 4414SOL     OW20240   3.604   4.210   2.138  0.1904 -0.2371  0.0650
 4414SOL    HW120241   3.618   4.227   2.235 -2.2596 -2.1462  0.7983
 4414SOL    HW220242   3.506   4.205   2.118  0.6320  0.4054 -2.5741
 4415SOL     OW20243   2.224   2.158   2.038  0.2051 -0.0664  0.1745
 4415SOL    HW120244   2.275   2.213   2.105  0.8844 -0.9358  0.3745
 4415SOL    HW220245   2.166   2.219   1.983  1.6619  0.9900 -0.2471
 4416SOL     OW20246   6.213   0.106   0.757 -0.3332  0.0711  0.1715
 4416SOL    HW120247   6.201   0.089   0.659 -2.2895  0.5720  0.2914
 4416SOL    HW220248   6.129   0.081   0.805  0.0042  1.4116  1.5089
 4417SOL     OW20249   0.949   1.309   6.497  0.7979 -0.1446 -0.5004
 4417SOL    HW120250   0.975   1.397   6.456  1.8485  0.3281  1.1263
 4417SOL    HW220251   0.926   1.323   6.594  0.1717 -1.5264 -0.4407
 4418SOL     OW20252   3.583   2.626   3.592  0.4369 -0.0846 -0.0213
 4418SOL    HW120253   3.643   2.677   3.654 -0.5441 -0.4905  1.3007
 4418SOL    HW220254   3.493   2.617   3.634 -0.2992 -0.2240 -1.6090
 4419SOL     OW20255   1.368   2.086   0.753  0.3111 -0.0865 -0.0599
 4419SOL    HW120256   1.372   2.080   0.853  1.2773 -1.1631 -0.1516
 4419SOL    HW220257   1.363   1.994   0.714  1.3070  0.2591 -1.0390
 4420SOL     OW20258   3.072   4.711   0.864 -0.3958  0.0677 -0.7509
 4420SOL    HW120259   2.977   4.743   0.870 -0.1766  0.6250 -0.1533
 4420SOL    HW220260   3.134   4.785   0.892  0.1718 -0.5852 -0.2628
 4421SOL     OW20261   0.761   6.530   6.863  0.0057 -0.1142 -0.3784
 4421SOL    HW120262   0.834   6.544   6.796 -0.8931  0.3700 -1.2825
 4421SOL    HW220263   0.741   6.616   6.910 -0.8392  0.0776 -1.0536
 4422SOL     OW20264   2.897   6.966   1.842  0.2216  0.3156 -0.1908
 4422SOL    HW120265   2.895   7.064   1.822 -3.4513  0.5751  1.1128
 4422SOL    HW220266   2.961   6.949   1.917  0.1335  1.8770  0.2625
 4423SOL     OW20267   6.071   5.252   4.102  0.4938  0.5793  0.2027
 4423SOL    HW120268   6.101   5.343   4.131  0.2570  0.1859  1.7555
 4423SOL    HW220269   6.015   5.259   4.020 -0.4123  1.9358  0.9247
 4424SOL     OW20270   0.660   4.977   6.874  0.0309 -0.0582  0.1223
 4424SOL    HW120271   0.630   4.892   6.918  0.2125 -0.9199 -1.4137
 4424SOL    HW220272   0.731   4.957   6.807  1.0474  1.4766  0.7080
 4425SOL     OW20273   6.117   2.565   3.370  0.7793 -0.1609  0.5508
 4425SOL    HW120274   6.069   2.552   3.458 -1.9846 -0.6869 -0.9612
 4425SOL    HW220275   6.134   2.662   3.356  1.9819 -0.1432  2.0453
 4426SOL     OW20276   1.318   6.947   6.739 -0.1795  0.5137 -0.1604
 4426SOL    HW120277   1.413   6.932   6.767  0.3422  1.5437 -1.3635
 4426SOL    HW220278   1.259   6.884   6.790  1.2518 -0.9076 -0.1888
 4427SOL     OW20279   6.541   5.740   3.957 -0.0394  0.6021  0.2156
 4427SOL    HW120280   6.596   5.716   3.877 -0.9155 -1.0776  0.1105
 4427SOL    HW220281   6.578   5.695   4.038 -1.1677 -0.4310  0.1676
 4428SOL     OW20282   3.967   2.580   5.737  0.5617  0.1507  0.2374
 4428SOL    HW120283   4.065   2.595   5.720  0.5451 -1.4664 -1.4777
 4428SOL    HW220284   3.946   2.602   5.832  2.3130  1.8568  0.2655
 4429SOL     OW20285   5.474   4.439   3.855 -0.2998 -0.3966 -0.2047
 4429SOL    HW120286   5.471   4.510   3.785 -0.8351 -0.5964 -0.3894
 4429SOL    HW220287   5.510   4.355   3.816  1.7770  0.1982  0.3998
 4430SOL     OW20288   2.928   7.353   1.061  0.1355  0.2936  0.2657
 4430SOL    HW120289   2.873   7.281   1.020 -0.0130  0.8798 -0.5582
 4430SOL    HW220290   2.905   7.361   1.158 -0.8958  0.2299  0.0235
 4431SOL     OW20291   3.309   3.711   5.029  0.3116  0.2307 -0.1314
 4431SOL    HW120292   3.309   3.720   5.128 -0.9217  1.9900 -0.2636
 4431SOL    HW220293   3.403   3.700   4.996  0.9672  2.2037  1.0217
 4432SOL     OW20294   7.166   2.693   3.814  0.1111 -0.3640 -0.3356
 4432SOL    HW120295   7.114   2.617   3.853  0.5699 -0.0321  0.9441
 4432SOL    HW220296   7.181   2.763   3.884 -0.2133  0.8602 -1.4725
 4433SOL     OW20297   4.963   6.221   5.440 -0.1541  0.7568  0.2013
 4433SOL    HW120298   4.974   6.142   5.379  1.1778  0.1871  1.1539
 4433SOL    HW220299   4.879   6.270   5.416 -1.2343 -1.1925 -0.1286
 4434SOL     OW20300   5.767   1.526   5.162  0.4796  0.6120  0.3859
 4434SOL    HW120301   5.732   1.448   5.214  0.5768 -0.5719 -1.3070
 4434SOL    HW220302   5.705   1.547   5.087  0.4332  2.2042  0.8526
 4435SOL     OW20303   5.292   7.228   3.161  0.4588 -0.5039 -0.2292
 4435SOL    HW120304   5.271   7.145   3.214  0.6878 -0.8660 -0.6936
 4435SOL    HW220305   5.302   7.203   3.065  0.4722  0.0804 -0.3770
 4436SOL     OW20306   5.068   1.249   4.398 -0.5820  0.3770  0.6257
 4436SOL    HW120307   5.163   1.276   4.382 -0.2112 -0.4386  1.3671
 4436SOL    HW220308   5.055   1.228   4.495 -1.2863 -0.4088  0.3726
 4437SOL     OW20309   5.229   1.468   3.514  0.0724 -0.6206 -0.0233
 4437SOL    HW120310   5.233   1.396   3.584  3.3022  1.1311  1.7367
 4437SOL    HW220311   5.151   1.528   3.533  1.3893  0.3414  2.7142
 4438SOL     OW20312   2.592   2.920   2.974 -0.3850  0.0703 -0.1764
 4438SOL    HW120313   2.497   2.930   2.943 -1.3145 -0.9973  2.1994
 4438SOL    HW220314   2.594   2.917   3.074  2.1996  0.3896 -0.2016
 4439SOL     OW20315   7.316   5.689   2.157 -0.2317  0.2059 -0.0852
 4439SOL    HW120316   7.332   5.765   2.221 -0.6154 -0.1278  0.4022
 4439SOL    HW220317   7.244   5.715   2.092 -1.3193 -0.2617  0.9314
 4440SOL     OW20318   1.729   4.129   4.990  0.5507  0.1181 -0.2410
 4440SOL    HW120319   1.635   4.163   4.989  0.2255 -0.7568 -0.0796
 4440SOL    HW220320   1.729   4.032   4.965  0.9929 -0.8593  3.2763
 4441SOL     OW20321   0.817   4.065   2.458 -0.1071  0.3825 -0.4156
 4441SOL    HW120322   0.864   4.104   2.538 -1.5844  0.3029  0.5121
 4441SOL    HW220323   0.789   4.139   2.397  1.0728  0.4413 -0.9065
 4442SOL     OW20324   1.570   2.827   6.626 -0.0030  0.3294  0.1530
 4442SOL    HW120325   1.648   2.882   6.596 -0.3923  1.0946  0.5155
 4442SOL    HW220326   1.493   2.842   6.564 -0.3032  0.6711  0.6038
 4443SOL     OW20327   1.024   1.715   1.409 -0.3483 -0.1349 -0.8097
 4443SOL    HW120328   0.991   1.679   1.496  2.2819 -0.9427 -0.1053
 4443SOL    HW220329   0.992   1.809   1.397 -1.8227 -0.4732  0.3987
 4444SOL     OW20330   7.218   7.076   1.313  0.2177  0.2658 -0.2147
 4444SOL    HW120331   7.194   7.126   1.397 -1.6606 -1.9260  0.6200
 4444SOL    HW220332   7.152   7.099   1.242  1.4210  1.6084 -0.9308
 4445SOL     OW20333   5.187   0.885   5.264 -0.0810  0.0013 -0.6540
 4445SOL    HW120334   5.283   0.855   5.269  0.0748 -0.0424 -3.1863
 4445SOL    HW220335   5.184   0.983   5.245 -0.5054 -0.1765 -1.5515
 4446SOL     OW20336   0.739   2.860   6.310 -0.8512 -0.0865  0.0924
 4446SOL    HW120337   0.705   2.953   6.295  0.7516  0.9053  2.3280
 4446SOL    HW220338   0.713   2.829   6.401 -1.6663 -1.9890 -0.7616
 4447SOL     OW20339   6.013   0.804   7.336  0.3237 -0.0973  0.1902
 4447SOL    HW120340   6.078   0.790   7.261 -0.0612  2.0569 -0.5606
 4447SOL    HW220341   5.922   0.823   7.298 -0.6818 -2.5403  1.2309
 4448SOL     OW20342   5.490   2.928   3.033  0.1086 -0.0490 -0.5265
 4448SOL    HW120343   5.457   2.836   3.052  0.7850 -0.4645 -1.3350
 4448SOL    HW220344   5.443   2.965   2.953  0.1708  0.1289 -0.4818
 4449SOL     OW20345   1.947   0.125   1.940  0.2489 -0.4855  0.4628
 4449SOL    HW120346   1.864   0.099   1.891  0.0710  2.3962 -0.8901
 4449SOL    HW220347   2.025   0.075   1.903 -0.3326 -0.4484 -0.8424
 4450SOL     OW20348   2.633   1.146   4.858 -0.6780  0.3943 -0.0863
 4450SOL    HW120349   2.654   1.206   4.780  2.1828 -0.7427 -0.2620
 4450SOL    HW220350   2.615   1.054   4.825  0.8209 -0.1566  0.5787
 4451SOL     OW20351   2.879   4.921   5.346  0.4877 -0.3381 -0.3548
 4451SOL    HW120352   2.944   4.947   5.417 -0.8382 -0.8320  1.0862
 4451SOL    HW220353   2.850   5.002   5.295 -0.6001  0.4713  1.4778
 4452SOL     OW20354   5.618   0.200   6.797 -0.1335  0.0438  0.1567
 4452SOL    HW120355   5.611   0.263   6.719  0.1308  0.9810  0.8754
 4452SOL    HW220356   5.616   0.106   6.765 -0.3052  0.4254 -0.9610
 4453SOL     OW20357   1.541   3.364   3.589  0.0696  0.5012  0.5847
 4453SOL    HW120358   1.517   3.298   3.659 -0.5243 -1.4462 -1.4102
 4453SOL    HW220359   1.624   3.334   3.541  0.7444  2.0447  0.7364
 4454SOL     OW20360   4.305   4.970   6.215  0.3976 -0.5091 -0.0003
 4454SOL    HW120361   4.292   4.938   6.309 -0.1921  0.1946  0.1555
 4454SOL    HW220362   4.372   4.911   6.170 -1.3527 -2.5274 -0.0058
 4455SOL     OW20363   6.505   0.697   5.038  0.2840 -0.1899 -0.3354
 4455SOL    HW120364   6.544   0.605   5.033 -0.5138 -0.5501  0.1815
 4455SOL    HW220365   6.573   0.763   5.006  1.1114 -0.8838 -0.0205
 4456SOL     OW20366   0.722   2.918   1.363  0.1183 -0.0976  0.2394
 4456SOL    HW120367   0.703   2.997   1.421 -1.7707  2.3935 -3.5577
 4456SOL    HW220368   0.820   2.898   1.364  0.5644  2.0291  1.6100
 4457SOL     OW20369   3.803   3.714   2.733  0.3218  0.1991  0.3647
 4457SOL    HW120370   3.841   3.807   2.727  0.9009 -0.1124 -1.0595
 4457SOL    HW220371   3.872   3.653   2.771  0.5243  0.0506 -0.2242
 4458SOL     OW20372   0.876   2.852   6.621 -0.3920 -0.4853 -0.0194
 4458SOL    HW120373   0.816   2.928   6.596  0.8858  0.6812  0.4092
 4458SOL    HW220374   0.971   2.884   6.622  0.1698 -2.1326  0.0111
 4459SOL     OW20375   1.642   5.231   5.309 -0.0922  0.2700 -0.0090
 4459SOL    HW120376   1.631   5.238   5.209 -0.6331 -0.7492 -0.0338
 4459SOL    HW220377   1.667   5.320   5.346  1.9089  0.2752 -1.2792
 4460SOL     OW20378   1.079   2.577   2.927  0.0625 -0.1732  0.0608
 4460SOL    HW120379   1.143   2.605   2.998 -1.3460  1.9206  0.5539
 4460SOL    HW220380   1.002   2.530   2.968 -0.0645 -0.2232 -0.2352
 4461SOL     OW20381   4.047   4.330   4.416 -0.1385 -0.0916 -0.3983
 4461SOL    HW120382   4.093   4.243   4.397  1.5956  1.0196 -1.4527
 4461SOL    HW220383   3.973   4.343   4.350 -0.9066 -1.1118  0.2484
 4462SOL     OW20384   3.400   3.602   3.621  0.0279 -0.4435 -0.2668
 4462SOL    HW120385   3.412   3.588   3.719  3.8608 -0.0356 -0.6031
 4462SOL    HW220386   3.440   3.524   3.572  0.1108  0.3830 -1.5349
 4463SOL     OW20387   6.344   6.025   4.413  0.8152  0.5127  0.3114
 4463SOL    HW120388   6.284   6.043   4.334  0.3077  0.3962  0.6663
 4463SOL    HW220389   6.439   6.035   4.385  0.7340 -1.8144 -0.9041
 4464SOL     OW20390   6.453   0.482   1.489  0.2974  0.2681 -0.4229
 4464SOL    HW120391   6.399   0.546   1.544 -1.1439 -1.3305  0.0580
 4464SOL    HW220392   6.395   0.441   1.419  0.2851 -3.0208  1.3915
 4465SOL     OW20393   2.580   6.931   2.025  0.3522 -0.5593  0.4376
 4465SOL    HW120394   2.611   6.940   2.119 -0.5685 -0.0534  0.6899
 4465SOL    HW220395   2.652   6.886   1.971  1.0021 -0.5727  1.3023
 4466SOL     OW20396   1.728   5.809   6.665  0.1021  0.0617 -0.1693
 4466SOL    HW120397   1.719   5.881   6.596 -0.8561 -1.0900 -1.2714
 4466SOL    HW220398   1.703   5.846   6.754  2.3462  1.8593 -0.2150
 4467SOL     OW20399   5.767   1.624   1.200  0.2376  0.4944  0.9198
 4467SOL    HW120400   5.696   1.561   1.231  0.8531 -0.9981 -0.5937
 4467SOL    HW220401   5.787   1.607   1.103  1.9927  1.5103  1.0766
 4468SOL     OW20402   0.226   5.136   5.581 -0.2976 -0.0450 -0.0308
 4468SOL    HW120403   0.222   5.070   5.506  1.4780 -2.2709  1.7930
 4468SOL    HW220404   0.321   5.164   5.595 -0.7404  1.0495  0.8219
 4469SOL     OW20405   2.453   0.643   1.940  0.5122  0.2095 -0.0175
 4469SOL    HW120406   2.507   0.563   1.965  0.0164 -0.1251  0.0073
 4469SOL    HW220407   2.368   0.643   1.994 -0.2659 -0.1551 -1.2385
 4470SOL     OW20408   2.636   6.219   2.696  0.0169  0.2957  0.6061
 4470SOL    HW120409   2.641   6.120   2.712 -0.8506  0.6129  2.9667
 4470SOL    HW220410   2.572   6.238   2.622 -0.2214 -0.8849  0.5002
 4471SOL     OW20411   6.578   4.702   0.343  0.0786 -0.1513 -0.7270
 4471SOL    HW120412   6.525   4.729   0.423 -1.4079 -2.0295 -1.0317
 4471SOL    HW220413   6.553   4.760   0.265  0.2951  0.5886 -0.2439
 4472SOL     OW20414   5.222   5.582   1.724  0.1883 -0.2605 -0.8803
 4472SOL    HW120415   5.215   5.680   1.707 -0.1495  0.0950  1.2534
 4472SOL    HW220416   5.165   5.557   1.802  2.0439 -1.7803  0.0245
 4473SOL     OW20417   0.552   1.869   2.214  0.1997  0.3415 -0.4594
 4473SOL    HW120418   0.585   1.881   2.308  0.4095 -0.3688 -0.4423
 4473SOL    HW220419   0.628   1.880   2.150  0.1583  0.2836 -0.5183
 4474SOL     OW20420   4.998   0.942   0.179 -0.4576 -0.6405 -0.5319
 4474SOL    HW120421   4.983   0.843   0.173 -1.6504 -0.3661 -2.4594
 4474SOL    HW220422   4.911   0.990   0.162 -0.5288  0.7112  3.1785
 4475SOL     OW20423   1.156   3.353   5.251 -0.1868 -0.5862  0.6866
 4475SOL    HW120424   1.063   3.387   5.267  0.5230  1.4601  0.6247
 4475SOL    HW220425   1.164   3.319   5.158 -0.7917 -0.5058  0.6056
 4476SOL     OW20426   5.655   3.820   2.151  0.3362  0.5858 -0.4839
 4476SOL    HW120427   5.567   3.833   2.197  0.5201 -2.2477  0.8031
 4476SOL    HW220428   5.720   3.777   2.215  1.0427 -2.1073 -2.9118
 4477SOL     OW20429   3.618   0.791   1.165  0.3230 -0.2249 -0.2674
 4477SOL    HW120430   3.524   0.806   1.195  0.5967 -0.0539  0.5259
 4477SOL    HW220431   3.618   0.760   1.070 -0.5984 -1.3184  0.0760
 4478SOL     OW20432   0.053   4.140   2.240 -0.4138  0.2674 -0.2183
 4478SOL    HW120433  -0.020   4.077   2.266  0.5450 -0.4984  0.7155
 4478SOL    HW220434   0.141   4.093   2.248  0.3187  1.7391  0.5584
 4479SOL     OW20435   4.963   2.777   3.168 -0.3210 -0.2790  0.1186
 4479SOL    HW120436   4.983   2.809   3.075 -1.6575  0.9257  0.2347
 4479SOL    HW220437   4.866   2.788   3.187 -0.0528 -0.4706  1.6978
 4480SOL     OW20438   1.081   5.702   1.603  0.1776  0.1738  0.0693
 4480SOL    HW120439   1.086   5.757   1.686 -0.3525 -1.9057  1.4911
 4480SOL    HW220440   1.160   5.642   1.598  1.0612  1.4362 -1.7903
 4481SOL     OW20441   3.698   6.700   5.772 -0.2768 -0.3341  0.1097
 4481SOL    HW120442   3.785   6.668   5.735  0.9017 -0.2104  2.6507
 4481SOL    HW220443   3.692   6.799   5.761 -0.0676 -0.3364 -0.0371
 4482SOL     OW20444   3.078   5.643   1.750  0.1575  0.2478  0.7248
 4482SOL    HW120445   3.100   5.662   1.846  2.0262  0.1617  0.3230
 4482SOL    HW220446   3.106   5.549   1.728 -0.5011  0.1820  0.1498
 4483SOL     OW20447   3.242   5.275   5.230 -0.0401  0.0684  0.5486
 4483SOL    HW120448   3.225   5.306   5.136  0.4907  1.5076  0.9189
 4483SOL    HW220449   3.295   5.344   5.279 -1.0058 -0.3089  2.1649
 4484SOL     OW20450   1.671   5.566   0.705  0.3677 -0.3486  0.2958
 4484SOL    HW120451   1.620   5.650   0.724  2.2166  1.0369 -0.6654
 4484SOL    HW220452   1.607   5.494   0.676 -0.9867  1.5171 -1.5066
 4485SOL     OW20453   6.192   5.895   3.793 -0.3230 -0.2546 -0.2734
 4485SOL    HW120454   6.288   5.879   3.771  0.1934  0.6672  1.2601
 4485SOL    HW220455   6.139   5.905   3.708  0.9282 -0.7329 -1.1157
 4486SOL     OW20456   5.923   5.872   3.192  0.4266  0.1304 -0.1015
 4486SOL    HW120457   5.875   5.938   3.250 -1.2094 -0.8328 -0.3485
 4486SOL    HW220458   5.969   5.920   3.117 -1.0728  0.9476 -0.5052
 4487SOL     OW20459   1.989   5.245   1.057 -0.0418  0.1009 -0.4927
 4487SOL    HW120460   1.967   5.304   1.134  1.0919  0.7536 -0.6624
 4487SOL    HW220461   2.082   5.211   1.066 -0.6949 -1.7305 -0.3643
 4488SOL     OW20462   1.103   0.649   3.773  0.2340  0.0078  0.4501
 4488SOL    HW120463   1.015   0.673   3.732  0.5738  1.0867  0.3207
 4488SOL    HW220464   1.091   0.632   3.871 -0.2944 -0.8922  0.2289
 4489SOL     OW20465   1.360   2.914   5.199  0.5580  0.4220 -0.0223
 4489SOL    HW120466   1.399   2.941   5.110  1.9652 -2.5181 -0.3706
 4489SOL    HW220467   1.262   2.934   5.200  1.0157  3.0181 -1.1757
 4490SOL     OW20468   3.725   3.142   5.067 -0.1798  0.5158 -0.0384
 4490SOL    HW120469   3.799   3.186   5.117 -0.8187 -0.3888  1.7602
 4490SOL    HW220470   3.701   3.056   5.113 -4.7869  2.5231  1.6195
 4491SOL     OW20471   1.309   1.913   2.826  0.8697  0.1132  0.1526
 4491SOL    HW120472   1.360   1.831   2.853 -2.2359 -1.2081  2.3124
 4491SOL    HW220473   1.277   1.960   2.908  1.0425  2.5266 -1.1121
 4492SOL     OW20474   2.082   0.635   0.655  0.3031 -0.7323  0.5633
 4492SOL    HW120475   2.043   0.550   0.619  2.4140 -1.6052  0.2973
 4492SOL    HW220476   2.139   0.615   0.734  2.2520  0.1943 -0.5696
 4493SOL     OW20477   7.225   6.424   5.968  0.4948 -0.0938 -0.6777
 4493SOL    HW120478   7.290   6.495   5.942 -1.6055  1.3335 -2.2983
 4493SOL    HW220479   7.246   6.339   5.919  0.6866  0.5717 -1.7600
 4494SOL     OW20480   5.864   0.579   3.893 -0.0405  0.0114  0.5637
 4494SOL    HW120481   5.833   0.674   3.890  0.7573  0.2585  0.2524
 4494SOL    HW220482   5.808   0.524   3.831  0.1034  0.4498  0.0439
 4495SOL     OW20483   5.464   6.798   4.228  0.5170  0.1182  0.4002
 4495SOL    HW120484   5.413   6.758   4.153 -1.2948  2.7979  0.1553
 4495SOL    HW220485   5.404   6.809   4.308  1.4073  0.8700  0.9810
 4496SOL     OW20486   4.767   3.897   4.621 -0.4818  0.4630  0.1436
 4496SOL    HW120487   4.727   3.814   4.662 -0.8349  0.3736 -0.3854
 4496SOL    HW220488   4.863   3.880   4.599 -0.7874 -0.0842 -0.7627
 4497SOL     OW20489   4.411   3.753   4.617  0.2168  0.0226  0.2921
 4497SOL    HW120490   4.419   3.853   4.621 -1.0314  0.0794  1.8040
 4497SOL    HW220491   4.359   3.727   4.535 -1.8033  0.7886  1.2936
 4498SOL     OW20492   5.561   1.521   7.355  0.0399  0.8731 -0.0679
 4498SOL    HW120493   5.605   1.610   7.365 -0.3040  0.9697  0.6071
 4498SOL    HW220494   5.508   1.501   7.437  2.0486 -1.0190  0.7924
 4499SOL     OW20495   4.216   2.134   2.524  0.5182 -0.2933  0.5537
 4499SOL    HW120496   4.196   2.120   2.427  0.7412  0.2723  0.4262
 4499SOL    HW220497   4.193   2.051   2.575  1.5186 -1.0163 -0.1563
 4500SOL     OW20498   2.384   1.832   6.551 -0.3764 -0.1458 -0.3179
 4500SOL    HW120499   2.411   1.928   6.541  0.1525 -0.2982 -0.3674
 4500SOL    HW220500   2.464   1.774   6.540 -0.4225 -0.5211  1.1585
 4501SOL     OW20501   6.572   5.583   6.618 -0.8290  0.1548 -0.8301
 4501SOL    HW120502   6.667   5.599   6.645 -0.5296 -0.8865 -1.1976
 4501SOL    HW220503   6.559   5.485   6.603 -2.2715  0.1630  0.3201
 4502SOL     OW20504   4.324   2.927   5.480 -0.2959  1.3572  0.2784
 4502SOL    HW120505   4.398   2.985   5.448 -0.6306  0.6959 -1.7409
 4502SOL    HW220506   4.339   2.904   5.576  1.3736  2.3623  0.2703
 4503SOL     OW20507   4.340   5.974   3.081 -0.1367 -0.1376  0.2671
 4503SOL    HW120508   4.304   5.950   3.171 -1.5092 -2.8888 -0.9573
 4503SOL    HW220509   4.411   5.908   3.056  0.4489  0.8038 -0.5364
 4504SOL     OW20510   5.684   1.362   3.531 -0.4613 -0.2404  0.3378
 4504SOL    HW120511   5.782   1.360   3.549 -0.1939  1.8802 -0.7213
 4504SOL    HW220512   5.652   1.270   3.509  1.2776 -0.9466  0.6803
 4505SOL     OW20513   5.397   0.926   0.347 -0.0731  0.3913  0.0665
 4505SOL    HW120514   5.368   0.953   0.256 -1.1965  0.6057  0.4860
 4505SOL    HW220515   5.387   1.003   0.410  0.9398  0.3210  0.3189
 4506SOL     OW20516   3.871   0.047   6.273 -0.4349  0.1068  0.0263
 4506SOL    HW120517   3.832   0.100   6.197 -0.3295  1.1822  0.7201
 4506SOL    HW220518   3.879  -0.049   6.245  2.3214  0.9671 -2.4151
 4507SOL     OW20519   3.659   1.414   3.411  0.2267  0.0968 -0.1580
 4507SOL    HW120520   3.586   1.347   3.424 -2.3670  2.8131 -0.1384
 4507SOL    HW220521   3.679   1.423   3.314  1.7273 -1.8308 -0.0512
 4508SOL     OW20522   0.826   1.721   3.568 -0.3994  0.1357  0.0230
 4508SOL    HW120523   0.799   1.630   3.600  0.8388 -0.1580  0.2656
 4508SOL    HW220524   0.853   1.717   3.472  2.2812 -0.3304  0.7487
 4509SOL     OW20525   4.840   7.164   4.089  0.2271  0.8415  0.4627
 4509SOL    HW120526   4.825   7.073   4.128  0.4882  0.9614  0.8396
 4509SOL    HW220527   4.752   7.210   4.076  0.0486  0.3170 -0.2582
 4510SOL     OW20528   5.820   4.004   2.987  0.2187  0.2949  0.0555
 4510SOL    HW120529   5.823   3.913   3.029  1.4834  1.1862  1.9923
 4510SOL    HW220530   5.861   4.070   3.049 -1.5697  2.3743 -0.9220
 4511SOL     OW20531   1.517   1.107   7.166  0.1420 -0.3532  0.4142
 4511SOL    HW120532   1.561   1.057   7.241 -0.2685 -0.4847  0.5651
 4511SOL    HW220533   1.470   1.187   7.202 -1.3635 -1.2545  0.5058
 4512SOL     OW20534   6.323   3.393   3.202 -0.0194 -0.1846  0.3586
 4512SOL    HW120535   6.224   3.398   3.186 -0.1648  1.7035  1.6097
 4512SOL    HW220536   6.372   3.423   3.120 -0.4797 -0.8161 -0.1536
 4513SOL     OW20537   4.286   3.150   6.373  0.0099 -0.5160  1.2536
 4513SOL    HW120538   4.240   3.072   6.329  1.2621  0.1526 -1.3452
 4513SOL    HW220539   4.384   3.144   6.356 -0.2039  3.3991 -1.9627
 4514SOL     OW20540   0.791   1.431   2.727  0.1122  0.1098 -0.2314
 4514SOL    HW120541   0.833   1.455   2.815  0.4617  0.2985 -0.4481
 4514SOL    HW220542   0.771   1.514   2.675  2.2872 -0.0556 -1.4218
 4515SOL     OW20543   7.186   5.721   6.965 -0.3948 -0.1524  0.1074
 4515SOL    HW120544   7.207   5.813   6.933 -1.7495 -0.2029 -0.9916
 4515SOL    HW220545   7.267   5.681   7.007  0.8058  0.7569 -1.2912
 4516SOL     OW20546   5.292   0.546   6.141  0.1028  0.3647 -0.4624
 4516SOL    HW120547   5.380   0.503   6.158  0.0755  0.0516 -1.0940
 4516SOL    HW220548   5.306   0.633   6.093  0.1525  1.0156  0.7218
 4517SOL     OW20549   2.231   6.240   7.011  0.3451 -0.2870  0.2607
 4517SOL    HW120550   2.305   6.240   7.078 -0.7450  0.7579  1.4952
 4517SOL    HW220551   2.167   6.314   7.032 -0.6512 -0.6934 -1.2365
 4518SOL     OW20552   5.090   7.235   3.989 -0.2045 -0.0204 -0.0852
 4518SOL    HW120553   5.159   7.232   4.061 -0.4053 -1.8211  0.0658
 4518SOL    HW220554   4.999   7.220   4.030 -0.4618  0.2792 -0.5466
 4519SOL     OW20555   4.212   1.310   6.676  0.6115 -0.1131 -1.0594
 4519SOL    HW120556   4.242   1.304   6.580 -0.4082  0.1452 -1.4056
 4519SOL    HW220557   4.259   1.387   6.720  0.6769  0.1138 -1.5146
 4520SOL     OW20558   0.630   1.877   0.839 -0.2448 -0.2801 -0.5042
 4520SOL    HW120559   0.681   1.884   0.925 -1.6162  2.4326  0.1229
 4520SOL    HW220560   0.671   1.937   0.770 -1.0933  0.0328 -0.7460
 4521SOL     OW20561   2.955   5.420   5.479  0.0522  0.4987  0.0932
 4521SOL    HW120562   3.022   5.356   5.515  0.5555  1.3042  0.6199
 4521SOL    HW220563   2.889   5.444   5.551  0.8436  1.8295  0.3957
 4522SOL     OW20564   2.145   0.707   6.445  0.1086  0.0446  0.2963
 4522SOL    HW120565   2.129   0.731   6.541 -0.8380  4.5869 -0.8492
 4522SOL    HW220566   2.229   0.751   6.412 -1.0517  0.9192 -1.6462
 4523SOL     OW20567   4.273   1.731   1.398  0.3525  0.0416 -0.0921
 4523SOL    HW120568   4.221   1.691   1.474 -0.5433 -1.0085 -1.2444
 4523SOL    HW220569   4.370   1.717   1.415  0.1273 -1.0511  0.4106
 4524SOL     OW20570   6.952   7.339   0.549 -0.1192  0.6412  0.0594
 4524SOL    HW120571   6.853   7.343   0.567 -0.0305  0.1437  0.6494
 4524SOL    HW220572   6.970   7.267   0.481 -0.2651  1.3637 -0.7452
 4525SOL     OW20573   5.288   0.948   6.318 -0.0047 -0.6429  0.2932
 4525SOL    HW120574   5.203   0.942   6.265  1.0257  0.7320 -1.5841
 4525SOL    HW220575   5.352   0.879   6.284  0.0287 -0.9271  0.9434
 4526SOL     OW20576   4.825   1.235   2.033 -0.3100  0.5804  0.2628
 4526SOL    HW120577   4.790   1.326   2.057 -0.9778 -0.2348  2.5211
 4526SOL    HW220578   4.757   1.166   2.055  0.1459 -0.4843 -1.5803
 4527SOL     OW20579   2.590   1.238   1.697 -0.2281  0.2553  0.1249
 4527SOL    HW120580   2.674   1.215   1.649  0.7052  2.3827  0.6287
 4527SOL    HW220581   2.530   1.159   1.702  0.9722 -0.7948 -1.8394
 4528SOL     OW20582   1.938   2.026   6.701  1.0473 -0.1013  0.5576
 4528SOL    HW120583   1.920   1.928   6.700  0.2563  0.0467  0.2888
 4528SOL    HW220584   1.907   2.065   6.788  0.8130  0.0141  0.4223
 4529SOL     OW20585   6.738   5.597   3.067  0.3213  0.1575 -0.5349
 4529SOL    HW120586   6.666   5.541   3.108  0.3378  0.1018 -0.5836
 4529SOL    HW220587   6.804   5.538   3.021  0.4568  0.2012 -0.3959
 4530SOL     OW20588   1.014   0.408   6.926  0.3024  0.1566  0.9070
 4530SOL    HW120589   1.099   0.459   6.929  0.3849  0.2703 -2.3035
 4530SOL    HW220590   1.028   0.321   6.878 -1.4502  0.3202  0.0565
 4531SOL     OW20591   6.480   0.103   6.471  0.0628 -0.1733  0.6751
 4531SOL    HW120592   6.564   0.133   6.425 -1.8078  1.4123 -1.8301
 4531SOL    HW220593   6.443   0.023   6.425 -0.4649 -0.1445  1.0441
 4532SOL     OW20594   2.629   3.059   0.649  0.9639  0.3171  0.1557
 4532SOL    HW120595   2.653   2.966   0.621  1.2285 -0.0048  1.4463
 4532SOL    HW220596   2.545   3.057   0.704 -0.1294  1.0606 -1.4395
 4533SOL     OW20597   5.324   2.626   1.555 -0.2446 -0.4196  0.0354
 4533SOL    HW120598   5.241   2.633   1.500 -0.0046 -1.5077 -0.4883
 4533SOL    HW220599   5.325   2.538   1.603  0.1983 -0.0518  0.7121
 4534SOL     OW20600   3.252   4.546   2.928 -0.1170 -0.0745  0.1532
 4534SOL    HW120601   3.333   4.586   2.971 -1.0584  1.6984  0.3172
 4534SOL    HW220602   3.258   4.560   2.829  1.2982 -2.7841 -0.1919
 4535SOL     OW20603   3.939   0.390   5.648 -0.4172 -0.1675 -0.3194
 4535SOL    HW120604   3.975   0.297   5.653 -0.6829 -0.2087  1.3543
 4535SOL    HW220605   3.941   0.422   5.554  1.0088 -1.3481 -0.7137
 4536SOL     OW20606   3.635   2.159   7.068 -0.8829 -0.6467  0.0266
 4536SOL    HW120607   3.565   2.115   7.012  3.2724 -1.6699 -4.7826
 4536SOL    HW220608   3.645   2.255   7.040 -0.4352 -0.4783  0.7428
 4537SOL     OW20609   4.433   2.348   4.605  0.0996 -0.0227  0.4987
 4537SOL    HW120610   4.529   2.331   4.585  0.0251  1.2470 -1.0025
 4537SOL    HW220611   4.410   2.308   4.694  0.7351 -4.9154 -1.3570
 4538SOL     OW20612   5.340   5.965   5.311 -0.3773  0.1592  0.5504
 4538SOL    HW120613   5.316   5.871   5.336  0.6103 -0.1125  0.5089
 4538SOL    HW220614   5.430   5.965   5.267 -0.4315  1.1122  0.4436
 4539SOL     OW20615   5.784   0.117   7.036  0.5409  0.2722 -0.0766
 4539SOL    HW120616   5.723   0.104   6.957  2.6277 -1.2968 -1.4604
 4539SOL    HW220617   5.809   0.213   7.043 -2.5920  1.0798  0.9185
 4540SOL     OW20618   0.742   5.577   5.988  0.4800 -0.2317 -0.3634
 4540SOL    HW120619   0.675   5.544   6.055  2.1047 -2.4850  0.1945
 4540SOL    HW220620   0.758   5.674   6.002 -3.7484  0.7166 -1.4410
 4541SOL     OW20621   3.922   2.486   6.471 -0.3903  0.4278  0.1697
 4541SOL    HW120622   3.948   2.393   6.446 -0.7799 -0.5099  3.0452
 4541SOL    HW220623   3.824   2.498   6.458 -0.9970 -0.7953  3.2902
 4542SOL     OW20624   6.594   3.787   0.470 -0.1081 -0.3650  0.4808
 4542SOL    HW120625   6.544   3.752   0.549 -0.8145 -0.8951 -0.1994
 4542SOL    HW220626   6.654   3.715   0.433 -1.8176 -0.9940 -1.1268
 4543SOL     OW20627   4.564   5.813   6.580 -0.4295 -0.5614  0.0914
 4543SOL    HW120628   4.611   5.850   6.500  1.8059 -0.3540  1.4360
 4543SOL    HW220629   4.553   5.714   6.569  0.7073 -0.6801 -0.0935
 4544SOL     OW20630   3.929   3.078   5.650 -0.1682 -0.1323  0.3558
 4544SOL    HW120631   3.944   2.994   5.599 -1.2675 -0.3152  0.3261
 4544SOL    HW220632   3.833   3.085   5.676 -0.2790  1.5842 -0.4727
 4545SOL     OW20633   3.286   3.936   5.856 -0.0581  0.2975 -0.7974
 4545SOL    HW120634   3.217   4.003   5.826 -0.0169  0.4012 -0.6569
 4545SOL    HW220635   3.355   3.926   5.785 -0.2029  0.2126 -0.9288
 4546SOL     OW20636   5.049   5.219   2.737 -0.3455 -0.2351  0.0372
 4546SOL    HW120637   4.980   5.152   2.764 -1.2395  1.6895  2.6827
 4546SOL    HW220638   5.011   5.282   2.670 -1.0162  0.5379  1.1416
 4547SOL     OW20639   2.998   5.139   6.163 -0.2821 -0.2322  0.7318
 4547SOL    HW120640   2.924   5.184   6.213  1.0212 -0.2128  2.6816
 4547SOL    HW220641   3.084   5.152   6.212  0.6908 -1.8958 -0.5033
 4548SOL     OW20642   1.707   2.411   4.643 -0.1992 -0.3822 -0.5376
 4548SOL    HW120643   1.636   2.342   4.647 -1.6476  1.1060 -0.1295
 4548SOL    HW220644   1.683   2.489   4.701  1.3669  0.5053 -1.0204
 4549SOL     OW20645   6.966   2.786   0.414 -0.1699 -0.3191 -0.1086
 4549SOL    HW120646   7.053   2.746   0.443 -1.1837 -2.6228 -0.1122
 4549SOL    HW220647   6.898   2.774   0.486 -0.6116  1.0936 -0.2735
 4550SOL     OW20648   4.445   0.697   5.389  0.5764 -0.1326  0.2271
 4550SOL    HW120649   4.529   0.644   5.376  1.8483  1.9502 -0.1177
 4550SOL    HW220650   4.403   0.715   5.300 -1.8689 -3.6477  0.5364
 4551SOL     OW20651   2.921   6.231   1.592  0.2595  0.1601  0.2466
 4551SOL    HW120652   2.949   6.191   1.679 -0.9961 -0.8041  0.2201
 4551SOL    HW220653   2.823   6.215   1.577 -0.3522  3.4622  0.3163
 4552SOL     OW20654   4.829   0.847   1.728  0.1783 -0.1470 -0.0921
 4552SOL    HW120655   4.926   0.832   1.708 -0.2093 -1.0993 -1.3288
 4552SOL    HW220656   4.820   0.896   1.814  1.7233 -1.0249  0.5916
 4553SOL     OW20657   3.231   4.116   0.497  0.7693 -0.3906  0.0438
 4553SOL    HW120658   3.152   4.171   0.470  1.6403  1.2619  0.7802
 4553SOL    HW220659   3.217   4.080   0.590  0.3464 -1.1333 -0.3063
 4554SOL     OW20660   2.797   4.158   4.991  0.4897 -0.0294  0.1583
 4554SOL    HW120661   2.704   4.192   5.009  0.8942  1.1833  0.0489
 4554SOL    HW220662   2.795   4.059   4.980 -0.7137 -0.0722  0.6877
 4555SOL     OW20663   2.945   1.336   0.389  0.8661  0.7820 -0.3288
 4555SOL    HW120664   2.953   1.436   0.393  2.2330  0.6928 -0.7401
 4555SOL    HW220665   2.906   1.310   0.300  2.4070  0.8516 -1.0450
 4556SOL     OW20666   1.328   0.812   5.599 -0.1982 -0.3015  0.4510
 4556SOL    HW120667   1.396   0.817   5.672 -0.0855  0.8976  0.2834
 4556SOL    HW220668   1.345   0.732   5.541  1.0048 -0.0553  0.4685
 4557SOL     OW20669   1.446   4.468   5.914  0.0983  0.5901 -0.3446
 4557SOL    HW120670   1.515   4.536   5.891  2.9206 -1.6718  1.1530
 4557SOL    HW220671   1.466   4.382   5.867 -1.0706 -0.4364  0.9731
 4558SOL     OW20672   1.539   6.513   6.956 -0.1134  0.1059 -0.0424
 4558SOL    HW120673   1.526   6.531   6.858 -2.0583 -0.3710  0.1036
 4558SOL    HW220674   1.595   6.431   6.968  1.1145  0.8417 -0.7495
 4559SOL     OW20675   0.318   6.971   5.031  0.3712  0.0889 -0.4874
 4559SOL    HW120676   0.394   6.958   4.966  0.5501 -2.5055  0.1687
 4559SOL    HW220677   0.329   6.907   5.107 -1.9059  0.4463  0.1646
 4560SOL     OW20678   5.270   4.518   6.317  0.0898  0.0442 -0.2754
 4560SOL    HW120679   5.365   4.496   6.295  0.1612  1.0249 -0.9486
 4560SOL    HW220680   5.225   4.556   6.237 -0.4240  1.0399  0.4801
 4561SOL     OW20681   3.281   1.897   6.409 -0.2817  0.0847 -0.3000
 4561SOL    HW120682   3.207   1.831   6.394 -1.2944  1.7311 -3.0282
 4561SOL    HW220683   3.367   1.858   6.376 -0.1302 -1.3792  1.7755
 4562SOL     OW20684   2.083   4.518   0.635  0.2799 -0.3896 -0.4805
 4562SOL    HW120685   2.049   4.544   0.545  0.0405 -1.9066 -0.8458
 4562SOL    HW220686   2.006   4.508   0.698  0.3880 -0.0042 -0.2866
 4563SOL     OW20687   3.873   0.152   0.092  0.0257 -0.2999 -0.3533
 4563SOL    HW120688   3.867   0.141  -0.007 -0.6356  0.3854 -0.3893
 4563SOL    HW220689   3.843   0.067   0.137  0.6161 -0.7170 -0.7368
 4564SOL     OW20690   6.511   3.142   4.433 -0.2358  0.3449  0.1208
 4564SOL    HW120691   6.601   3.132   4.477 -0.5579  1.2738  1.0177
 4564SOL    HW220692   6.462   3.055   4.439  2.3902 -1.6301 -4.5461
 4565SOL     OW20693   3.478   1.974   0.652 -0.2538 -0.5453  0.2137
 4565SOL    HW120694   3.491   2.030   0.734 -0.2212  0.6663 -0.6013
 4565SOL    HW220695   3.510   1.881   0.670 -1.0027 -0.5118  1.8370
 4566SOL     OW20696   3.158   3.089   0.999 -0.4041  0.1860 -0.2722
 4566SOL    HW120697   3.158   3.105   0.900 -1.2344  2.2938  0.0353
 4566SOL    HW220698   3.068   3.111   1.036 -0.1548 -0.7845  0.9303
 4567SOL     OW20699   1.206   4.643   6.961 -0.2215  0.1628 -0.0464
 4567SOL    HW120700   1.188   4.551   6.998  1.7721  0.1637  0.9574
 4567SOL    HW220701   1.119   4.686   6.939 -1.3258 -1.0721  1.6713
 4568SOL     OW20702   0.030   0.910   6.163 -0.3383  0.6904  0.0300
 4568SOL    HW120703  -0.060   0.874   6.189  0.1214 -0.1770  0.4575
 4568SOL    HW220704   0.034   0.921   6.064 -0.0673 -1.6552 -0.2393
 4569SOL     OW20705   4.807   1.155   5.972 -0.0062  0.1327  0.2661
 4569SOL    HW120706   4.784   1.089   5.900 -0.4612  1.1208 -0.5071
 4569SOL    HW220707   4.906   1.155   5.987  0.2479  0.8544 -1.2992
 4570SOL     OW20708   1.889   3.428   6.468 -0.0204  0.2752  0.2630
 4570SOL    HW120709   1.966   3.486   6.491 -0.3328  0.5185  0.7065
 4570SOL    HW220710   1.810   3.485   6.444  0.4542  0.0363 -1.9957
 4571SOL     OW20711   1.074   5.953   1.151 -0.2474  0.5526  0.1406
 4571SOL    HW120712   1.140   5.944   1.077 -0.2581  0.0387  0.1903
 4571SOL    HW220713   1.092   6.037   1.201  0.6961  0.1722  0.4627
 4572SOL     OW20714   0.697   3.199   1.446  0.1323 -0.6091 -0.3056
 4572SOL    HW120715   0.655   3.266   1.384  0.9895  0.5150  0.3137
 4572SOL    HW220716   0.698   3.236   1.539  3.6884 -0.0167 -0.5071
 4573SOL     OW20717   6.126   0.452   6.898  0.4280 -0.1650 -0.3085
 4573SOL    HW120718   6.134   0.477   6.995  0.0454 -1.5617  0.1093
 4573SOL    HW220719   6.164   0.524   6.841  2.4620 -0.1714  0.9751
 4574SOL     OW20720   5.582   0.208   7.263 -0.8225  0.4758  0.1280
 4574SOL    HW120721   5.608   0.291   7.213  0.1941 -0.1290 -0.3684
 4574SOL    HW220722   5.654   0.139   7.252 -0.2426  0.5697  2.9728
 4575SOL     OW20723   2.790   6.509   6.270  0.4248  0.5222  0.4779
 4575SOL    HW120724   2.701   6.468   6.290  0.1399  0.6087 -0.5891
 4575SOL    HW220725   2.786   6.607   6.287  0.0286  0.6785 -0.4963
 4576SOL     OW20726   5.881   0.136   3.619  0.4243  0.0163  0.2736
 4576SOL    HW120727   5.923   0.203   3.680  2.6412 -1.9456  0.9664
 4576SOL    HW220728   5.876   0.173   3.527  1.0357  1.3865  0.7846
 4577SOL     OW20729   0.384   6.085   5.673 -0.3211 -0.0920  0.1721
 4577SOL    HW120730   0.329   6.166   5.652  0.1639 -0.4163 -2.5173
 4577SOL    HW220731   0.480   6.111   5.679 -0.1729 -0.4490 -0.6155
 4578SOL     OW20732   3.014   7.270   4.339 -0.1032 -0.1055  0.3909
 4578SOL    HW120733   3.015   7.171   4.348  1.0361 -0.0831  0.5557
 4578SOL    HW220734   2.930   7.298   4.291  0.0249 -1.2155 -0.5083
 4579SOL     OW20735   5.163   6.672   3.187  0.2769  0.5311 -0.0532
 4579SOL    HW120736   5.075   6.704   3.224  0.4800  0.9020  0.1128
 4579SOL    HW220737   5.235   6.689   3.255  0.5322  0.5490 -0.3308
 4580SOL     OW20738   5.652   0.267   3.174 -0.7443 -0.3882  0.1317
 4580SOL    HW120739   5.585   0.196   3.194 -1.4585  0.4583  0.7704
 4580SOL    HW220740   5.608   0.340   3.122 -0.2756  0.0973  0.4136
 4581SOL     OW20741   5.849   1.731   4.899 -0.1809 -0.4628 -0.1871
 4581SOL    HW120742   5.937   1.682   4.898 -0.1279 -0.4485  2.3742
 4581SOL    HW220743   5.866   1.829   4.889 -0.0501 -0.5887 -1.3912
 4582SOL     OW20744   1.997   6.284   1.443  0.3444  0.0064  0.1000
 4582SOL    HW120745   2.056   6.203   1.449  0.1893 -0.0112  1.5717
 4582SOL    HW220746   1.993   6.316   1.348 -0.1123 -2.0979 -0.6167
 4583SOL     OW20747   2.236   4.723   6.221  0.2049  0.2088 -0.0819
 4583SOL    HW120748   2.193   4.635   6.242 -1.7557  1.1651  0.0602
 4583SOL    HW220749   2.227   4.784   6.300  1.0938  0.7193 -0.3652
 4584SOL     OW20750   5.067   2.160   4.315 -0.2652 -0.1887  0.5134
 4584SOL    HW120751   5.132   2.233   4.291  0.1608 -0.8607 -0.4066
 4584SOL    HW220752   4.974   2.190   4.295 -0.1307  0.2858  0.5927
 4585SOL     OW20753   7.129   2.679   3.072  0.0104  0.2210  0.1902
 4585SOL    HW120754   7.203   2.666   3.138 -0.1745 -1.9876  0.0228
 4585SOL    HW220755   7.168   2.691   2.981  0.2261  1.8442  0.4886
 4586SOL     OW20756   6.763   5.684   6.033  0.7883  0.6432  0.1162
 4586SOL    HW120757   6.818   5.670   6.115  0.3900 -1.3233  0.0730
 4586SOL    HW220758   6.796   5.625   5.959 -1.6181 -0.9381  0.2243
 4587SOL     OW20759   0.663   3.950   2.999 -0.5633 -0.3457 -0.2638
 4587SOL    HW120760   0.694   3.870   3.050 -1.0375 -0.3391  0.0390
 4587SOL    HW220761   0.721   4.029   3.021  0.1703 -0.7002 -0.8850
 4588SOL     OW20762   1.590   1.505   1.265 -0.0354  0.0816 -0.6053
 4588SOL    HW120763   1.594   1.471   1.359  0.9828  1.6462 -0.0518
 4588SOL    HW220764   1.507   1.471   1.221  0.4539 -2.2472  0.2100
 4589SOL     OW20765   5.673   0.900   4.770 -0.0743  0.0743  0.2622
 4589SOL    HW120766   5.630   0.831   4.829  2.4281 -0.9145  1.0092
 4589SOL    HW220767   5.638   0.891   4.677  0.2527 -2.3158  0.3165
 4590SOL     OW20768   4.404   0.855   7.102  0.7687  0.2392  0.7415
 4590SOL    HW120769   4.355   0.936   7.068  0.4743 -0.2217  0.0525
 4590SOL    HW220770   4.500   0.861   7.076  0.2537 -0.8491 -1.5727
 4591SOL     OW20771   7.352   3.143   7.013  0.4865 -0.0663  0.5442
 4591SOL    HW120772   7.416   3.108   7.082 -0.0489  2.8313  2.6302
 4591SOL    HW220773   7.262   3.104   7.029  0.4740  0.2274  1.2571
 4592SOL     OW20774   1.955   4.558   4.331 -0.1557 -0.3828 -0.3917
 4592SOL    HW120775   1.993   4.548   4.423 -2.1316 -1.2484  0.3746
 4592SOL    HW220776   1.992   4.640   4.288  0.1132  0.5335  1.5154
 4593SOL     OW20777   7.272   3.857   5.896 -0.8076  0.2046  0.1351
 4593SOL    HW120778   7.369   3.858   5.870  0.0085 -2.1287  2.8307
 4593SOL    HW220779   7.248   3.946   5.934  0.1568  0.9201 -0.8555
 4594SOL     OW20780   3.456   4.564   0.363  0.7047  0.0550  0.0919
 4594SOL    HW120781   3.464   4.483   0.304  1.0643  0.2913 -0.1889
 4594SOL    HW220782   3.404   4.635   0.315  1.4304  0.4348 -0.1509
 4595SOL     OW20783   4.104   6.760   2.004  0.6712  0.0302  0.0692
 4595SOL    HW120784   4.030   6.705   1.964 -0.3485 -0.3608  2.4125
 4595SOL    HW220785   4.114   6.844   1.952 -2.2049  0.6145  0.3624
 4596SOL     OW20786   0.112   6.494   0.348  0.1123  0.4000 -0.3264
 4596SOL    HW120787   0.199   6.446   0.340  0.6010  1.2306 -0.0525
 4596SOL    HW220788   0.066   6.466   0.432  0.3659  0.3702 -0.1971
 4597SOL     OW20789   2.188   4.249   6.354  0.4704  0.0306 -0.2510
 4597SOL    HW120790   2.281   4.236   6.388  0.0347 -0.3197  0.8279
 4597SOL    HW220791   2.127   4.183   6.397 -0.3287  0.4128 -0.7766
 4598SOL     OW20792   3.765   2.976   2.217  0.0556 -0.0721  0.7322
 4598SOL    HW120793   3.673   3.009   2.234  0.0181  0.5397 -0.5571
 4598SOL    HW220794   3.761   2.895   2.159  0.4076  1.5552 -1.6583
 4599SOL     OW20795   3.322   0.833   1.833  0.1201  0.3787 -0.1898
 4599SOL    HW120796   3.272   0.748   1.850 -0.4042  0.7399  0.0838
 4599SOL    HW220797   3.303   0.866   1.741  0.0712  0.3717 -0.1819
 4600SOL     OW20798   1.486   2.344   2.719 -0.5811  0.5088 -0.1703
 4600SOL    HW120799   1.524   2.354   2.627 -0.8666  0.2856 -0.3113
 4600SOL    HW220800   1.387   2.355   2.716 -0.8938 -2.0899 -0.2854
 4601SOL     OW20801   2.452   2.682   6.597 -0.4575  0.0497 -0.2439
 4601SOL    HW120802   2.534   2.647   6.553  0.2491  1.2161  0.1365
 4601SOL    HW220803   2.425   2.620   6.671 -0.0215 -0.4179 -0.4714
 4602SOL     OW20804   1.797   3.836   1.352  0.0259 -0.3405 -0.2622
 4602SOL    HW120805   1.863   3.764   1.326  2.2495  1.0964  1.2678
 4602SOL    HW220806   1.736   3.800   1.422 -0.3392 -1.4564 -1.1329
 4603SOL     OW20807   1.318   4.469   4.279 -0.4576  0.2443  0.7511
 4603SOL    HW120808   1.224   4.434   4.277 -0.3601  0.0372 -0.7873
 4603SOL    HW220809   1.322   4.557   4.232  0.6507 -1.1376 -1.8459
 4604SOL     OW20810   1.266   3.188   4.741 -0.2293 -0.3541 -0.1385
 4604SOL    HW120811   1.219   3.226   4.662 -1.3696 -1.7527 -0.1622
 4604SOL    HW220812   1.356   3.155   4.715 -0.7153 -1.0690 -0.9168
 4605SOL     OW20813   6.335   6.144   0.625  0.1983 -0.2458  0.1979
 4605SOL    HW120814   6.365   6.053   0.657  0.5038 -0.7221 -1.4031
 4605SOL    HW220815   6.344   6.149   0.526  1.5623  2.0504  0.3994
 4606SOL     OW20816   2.187   1.227   0.525  0.1721  0.3651 -0.4543
 4606SOL    HW120817   2.277   1.236   0.483  0.8331 -1.8223  0.4458
 4606SOL    HW220818   2.130   1.166   0.470 -0.4092  0.9035 -0.4551
 4607SOL     OW20819   6.455   6.703   0.800  0.0405  0.7472 -0.4495
 4607SOL    HW120820   6.481   6.760   0.722 -0.9427 -0.4399 -1.6867
 4607SOL    HW220821   6.384   6.639   0.771  0.1739 -0.1959  1.2598
 4608SOL     OW20822   4.803   0.115   6.349  0.1803 -0.2615  0.0709
 4608SOL    HW120823   4.854   0.060   6.415  0.4335 -1.0200 -0.7520
 4608SOL    HW220824   4.757   0.191   6.396 -0.4743 -1.3953  1.2668
 4609SOL     OW20825   6.477   0.673   2.106  0.7021  0.0957 -0.2840
 4609SOL    HW120826   6.482   0.593   2.046  1.4931 -1.3091  1.5870
 4609SOL    HW220827   6.570   0.699   2.134  0.3344  0.6269  0.4587
 4610SOL     OW20828   6.792   2.336   4.214  0.4687  0.5477  0.0633
 4610SOL    HW120829   6.740   2.262   4.256 -1.1155 -0.5322 -3.6326
 4610SOL    HW220830   6.736   2.418   4.210  1.0383  0.9997  1.0599
 4611SOL     OW20831   1.385   4.967   1.185 -0.3174 -0.3601  0.0524
 4611SOL    HW120832   1.325   4.965   1.105 -1.3701 -2.5383  0.8418
 4611SOL    HW220833   1.329   4.976   1.268  0.6451  0.2785  0.6470
 4612SOL     OW20834   5.582   4.223   3.750 -0.1776 -0.5375 -0.4428
 4612SOL    HW120835   5.547   4.147   3.696  2.8743 -2.6970  0.5205
 4612SOL    HW220836   5.659   4.266   3.702 -1.6049  1.6954 -0.7854
 4613SOL     OW20837   7.093   4.987   4.117  0.4697  0.3974 -0.0016
 4613SOL    HW120838   7.042   4.917   4.168 -2.0713  2.5321  0.5320
 4613SOL    HW220839   7.134   4.946   4.036 -1.8669 -1.5293 -0.2815
 4614SOL     OW20840   2.946   4.874   6.163  0.2472 -0.3353 -0.3495
 4614SOL    HW120841   2.940   4.969   6.133  0.6291 -0.0535  0.4731
 4614SOL    HW220842   3.026   4.862   6.222 -0.2856 -0.9765  0.2529
 4615SOL     OW20843   5.182   4.696   7.350 -0.1122  0.6293 -0.3717
 4615SOL    HW120844   5.214   4.782   7.389 -2.0892  1.5541 -0.7733
 4615SOL    HW220845   5.218   4.685   7.258 -1.5105  2.0246 -1.1054
 4616SOL     OW20846   6.218   6.091   4.183 -0.0538  0.0252 -0.1826
 4616SOL    HW120847   6.194   6.151   4.107 -0.7898  0.1008  0.1099
 4616SOL    HW220848   6.146   6.023   4.196 -0.1281  0.2689  0.7093
 4617SOL     OW20849   6.623   7.332   3.282 -0.6357  0.4082 -0.0050
 4617SOL    HW120850   6.630   7.423   3.322  1.8089 -0.2471  1.1533
 4617SOL    HW220851   6.532   7.320   3.242 -0.8588  3.4673 -0.5231
 4618SOL     OW20852   4.353   1.305   3.628  0.0613  0.0874  0.9218
 4618SOL    HW120853   4.422   1.338   3.691  0.0429 -0.2923  1.1391
 4618SOL    HW220854   4.319   1.381   3.572  0.2619  0.3698  1.1900
 4619SOL     OW20855   5.909   0.523   2.637 -0.1923 -0.1167 -0.4342
 4619SOL    HW120856   6.000   0.511   2.596 -0.8032 -0.0537 -1.8271
 4619SOL    HW220857   5.839   0.499   2.571 -1.2087  0.2504  0.4948
 4620SOL     OW20858   0.223   7.102   1.297  0.4370  0.1848  0.3329
 4620SOL    HW120859   0.130   7.138   1.310  0.1088  0.4461 -2.4547
 4620SOL    HW220860   0.219   7.002   1.292  0.3191  0.1895  0.3179
 4621SOL     OW20861   6.015   4.593   7.108 -0.6857 -0.0341  0.0610
 4621SOL    HW120862   5.942   4.652   7.074 -2.6456 -1.7159  1.2172
 4621SOL    HW220863   6.054   4.634   7.191 -0.0702  1.0069 -0.7178
 4622SOL     OW20864   3.264   0.959   2.608 -0.1601 -0.3507 -0.1333
 4622SOL    HW120865   3.261   0.901   2.689  0.7710 -0.2524 -0.0284
 4622SOL    HW220866   3.293   0.905   2.529 -1.3661 -0.5208 -0.4730
 4623SOL     OW20867   4.426   2.681   4.376  0.7648 -0.5529  0.3139
 4623SOL    HW120868   4.350   2.652   4.434  1.4456 -0.1885  1.4136
 4623SOL    HW220869   4.394   2.748   4.310  0.1202 -0.4419  0.7356
 4624SOL     OW20870   0.531   4.241   5.146 -0.2786  0.0607  0.1983
 4624SOL    HW120871   0.509   4.304   5.221  0.6007 -1.7108  1.9875
 4624SOL    HW220872   0.454   4.237   5.083 -1.1574  1.3745  1.1433
 4625SOL     OW20873   0.518   2.905   7.164  0.0547 -0.1745 -0.2197
 4625SOL    HW120874   0.481   2.894   7.072  1.6091  0.8239 -0.9949
 4625SOL    HW220875   0.481   2.988   7.206 -0.2492 -0.3484 -0.1428
 4626SOL     OW20876   1.681   2.503   1.765  0.0245  0.0522 -0.2366
 4626SOL    HW120877   1.759   2.556   1.732 -0.5881  0.6544 -0.7263
 4626SOL    HW220878   1.602   2.518   1.705 -0.2205 -1.2299 -0.2360
 4627SOL     OW20879   2.374   5.452   0.483  0.4456 -0.5288  0.3281
 4627SOL    HW120880   2.351   5.357   0.461 -0.0994 -0.6086  1.2196
 4627SOL    HW220881   2.381   5.504   0.398 -0.3416 -1.1183 -0.1128
 4628SOL     OW20882   2.356   3.394   1.063  0.4688 -0.4723 -0.0723
 4628SOL    HW120883   2.341   3.297   1.046  0.5085 -0.6975  1.1030
 4628SOL    HW220884   2.380   3.440   0.978  1.3677 -1.6595 -0.4680
 4629SOL     OW20885   3.330   6.293   6.901  0.1678 -0.2082  0.4962
 4629SOL    HW120886   3.264   6.295   6.826  1.7984 -0.8865 -1.0045
 4629SOL    HW220887   3.389   6.213   6.891  2.6017  1.5202  0.5865
 4630SOL     OW20888   7.117   2.470   1.024 -0.4517  0.1993 -0.4809
 4630SOL    HW120889   7.148   2.402   0.957  1.1948  0.5474 -0.0922
 4630SOL    HW220890   7.031   2.440   1.063  0.1599 -1.6048 -0.4477
 4631SOL     OW20891   0.887   3.188   7.240  0.1142  0.2979  0.0011
 4631SOL    HW120892   0.793   3.216   7.218 -0.7645 -1.6448  1.0475
 4631SOL    HW220893   0.911   3.220   7.331 -0.1497 -0.5972  0.3911
 4632SOL     OW20894   6.770   6.000   6.392  0.2283 -0.2320  0.0156
 4632SOL    HW120895   6.798   6.013   6.487 -1.5586  0.0548  0.5224
 4632SOL    HW220896   6.714   6.078   6.363 -0.6960 -1.1522 -0.7071
 4633SOL     OW20897   1.811   7.142   0.040  0.3410  0.1653  0.2565
 4633SOL    HW120898   1.814   7.048   0.073 -1.2482  0.1916  0.5070
 4633SOL    HW220899   1.733   7.189   0.080  0.1321  1.0856 -1.1854
 4634SOL     OW20900   6.360   0.891   6.520  0.1251 -0.0998  0.1727
 4634SOL    HW120901   6.459   0.897   6.508  0.1403 -1.0104 -0.2255
 4634SOL    HW220902   6.330   0.797   6.501 -0.7827  0.1167  0.5138
 4635SOL     OW20903   5.586   3.089   3.564  0.6003 -0.2775  0.0190
 4635SOL    HW120904   5.602   2.991   3.569 -0.6543 -0.5956 -1.9769
 4635SOL    HW220905   5.542   3.112   3.478  0.5378  1.9979  0.6206
 4636SOL     OW20906   3.501   1.290   2.549 -0.3034 -0.3780  0.0699
 4636SOL    HW120907   3.492   1.199   2.508  1.1431 -0.5636  0.1279
 4636SOL    HW220908   3.569   1.342   2.497 -0.0734  0.1571  0.9085
 4637SOL     OW20909   2.895   6.042   6.246 -0.0514 -0.0333 -0.5916
 4637SOL    HW120910   2.967   6.101   6.212 -0.2339 -1.4026 -3.5240
 4637SOL    HW220911   2.934   5.973   6.307  0.5334  1.4741  0.7657
 4638SOL     OW20912   6.922   4.626   5.086 -0.2685 -0.2229 -0.5709
 4638SOL    HW120913   6.855   4.652   5.156 -0.5123  0.5660 -1.0875
 4638SOL    HW220914   6.950   4.531   5.101 -0.6729 -0.2143  0.3104
 4639SOL     OW20915   4.294   4.017   2.326  0.5167  0.2752  0.1177
 4639SOL    HW120916   4.383   4.056   2.348  0.6855  1.0230 -1.8134
 4639SOL    HW220917   4.294   3.986   2.231 -0.9789 -0.6095  0.3921
 4640SOL     OW20918   6.381   1.442   6.162 -0.6973  0.2333  0.1843
 4640SOL    HW120919   6.312   1.374   6.139  0.3404 -1.0969  0.9634
 4640SOL    HW220920   6.441   1.457   6.083 -1.3246  0.7345 -0.2009
 4641SOL     OW20921   0.499   1.346   2.618  0.4711  0.4033 -0.7484
 4641SOL    HW120922   0.458   1.280   2.554  0.9682 -0.6566 -0.0037
 4641SOL    HW220923   0.535   1.424   2.567  0.0911 -0.0250 -1.6834
 4642SOL     OW20924   4.444   6.147   4.906 -0.4863  0.1650  0.1100
 4642SOL    HW120925   4.363   6.205   4.898 -0.5630 -0.0126 -0.4838
 4642SOL    HW220926   4.477   6.124   4.814 -0.9018 -1.3516  0.3349
 4643SOL     OW20927   2.317   3.456   5.430 -0.2255 -0.2691 -0.1917
 4643SOL    HW120928   2.373   3.410   5.499 -1.0201  0.1017  0.7080
 4643SOL    HW220929   2.243   3.506   5.475 -0.1214  0.8510 -1.2492
 4644SOL     OW20930   2.939   4.551   5.082 -0.5556  0.5090  0.3521
 4644SOL    HW120931   2.845   4.557   5.117 -0.5406  2.6016  0.0551
 4644SOL    HW220932   2.998   4.612   5.135  0.3149  0.4468 -0.5493
 4645SOL     OW20933   6.212   4.464   5.046 -0.3871  0.1158  0.0331
 4645SOL    HW120934   6.199   4.529   4.972  2.5280 -1.3017 -1.8082
 4645SOL    HW220935   6.181   4.373   5.018  2.5154 -0.8372 -0.2160
 4646SOL     OW20936   1.937   5.892   4.458 -0.4611 -0.2510 -0.0487
 4646SOL    HW120937   1.950   5.861   4.552  0.3866  2.2498  0.7169
 4646SOL    HW220938   1.960   5.818   4.394  3.5010 -0.5964  1.6186
 4647SOL     OW20939   3.228   3.713   6.951  0.1623 -0.4944 -0.3007
 4647SOL    HW120940   3.141   3.723   6.902  0.4872  0.3761 -0.7144
 4647SOL    HW220941   3.304   3.733   6.888  0.6257 -0.3859  0.2847
 4648SOL     OW20942   5.420   5.919   6.771 -0.3639  0.3709 -0.3563
 4648SOL    HW120943   5.394   5.988   6.838  1.9554 -0.6014  1.6046
 4648SOL    HW220944   5.430   5.830   6.816  0.9648 -0.3461 -2.0113
 4649SOL     OW20945   7.128   4.851   1.910 -0.1087 -0.3548  0.2801
 4649SOL    HW120946   7.164   4.761   1.886  1.1671  0.1922  0.1181
 4649SOL    HW220947   7.135   4.865   2.008 -0.7613 -0.6265  0.3665
 4650SOL     OW20948   2.347   1.351   1.795 -0.1743 -0.1551  0.1359
 4650SOL    HW120949   2.359   1.313   1.887  1.7681  0.3833  0.1284
 4650SOL    HW220950   2.433   1.345   1.745 -1.3376 -0.8282 -1.8095
 4651SOL     OW20951   4.012   6.743   4.126 -0.1470 -0.8625 -0.1984
 4651SOL    HW120952   3.957   6.809   4.177  0.5209 -0.2958 -0.2013
 4651SOL    HW220953   3.974   6.652   4.138 -1.0970 -0.4729 -0.2175
 4652SOL     OW20954   1.616   0.616   5.880  0.0080 -0.1439  0.3074
 4652SOL    HW120955   1.657   0.662   5.958 -0.6525  1.2360 -0.1382
 4652SOL    HW220956   1.687   0.576   5.823  0.5923  0.3619  0.6840
 4653SOL     OW20957   5.467   6.465   3.398 -0.4388  0.5528  0.1419
 4653SOL    HW120958   5.371   6.443   3.417  0.2144 -1.1483  1.5095
 4653SOL    HW220959   5.489   6.438   3.304 -0.9743 -0.1512  0.2108
 4654SOL     OW20960   4.551   0.791   3.393 -0.0052  0.5166  0.7543
 4654SOL    HW120961   4.482   0.821   3.459 -1.3621  0.9545 -0.8301
 4654SOL    HW220962   4.553   0.691   3.388  1.2197  0.4264  2.5944
 4655SOL     OW20963   3.914   6.676   5.247 -0.2448  1.1235  0.0329
 4655SOL    HW120964   3.994   6.698   5.302  1.4244 -1.9578 -1.0380
 4655SOL    HW220965   3.843   6.636   5.306  1.4743 -2.0311  0.0712
 4656SOL     OW20966   3.040   3.004   6.235 -0.3282 -0.0601 -0.3001
 4656SOL    HW120967   3.005   2.949   6.159 -1.4069  0.4441 -0.1873
 4656SOL    HW220968   3.127   2.967   6.267 -0.5018 -1.0322 -0.9494
 4657SOL     OW20969   3.487   4.566   4.624 -0.0450 -0.6440  0.2294
 4657SOL    HW120970   3.583   4.575   4.597 -0.2780  0.1717 -0.3347
 4657SOL    HW220971   3.442   4.655   4.618 -1.4067 -1.4351 -1.6852
 4658SOL     OW20972   1.054   4.215   1.441  0.0425 -0.2599 -0.2278
 4658SOL    HW120973   1.093   4.273   1.369  0.2178 -0.6843 -0.4766
 4658SOL    HW220974   1.082   4.249   1.531 -1.1248  0.9644 -0.3151
 4659SOL     OW20975   5.053   0.110   1.605 -0.1642 -0.1167  0.7310
 4659SOL    HW120976   5.043   0.014   1.578 -0.7058  0.1809 -0.1211
 4659SOL    HW220977   5.117   0.115   1.682  2.4753 -0.8400 -1.3239
 4660SOL     OW20978   1.187   1.366   1.587 -0.3671  0.1432  0.1749
 4660SOL    HW120979   1.091   1.394   1.583 -0.1645  0.8157 -0.0869
 4660SOL    HW220980   1.243   1.444   1.613 -0.0181 -0.5474  1.5021
 4661SOL     OW20981   7.292   5.189   0.352  0.1452  0.3648  0.1110
 4661SOL    HW120982   7.207   5.221   0.309  0.7414  0.3382 -1.1025
 4661SOL    HW220983   7.348   5.268   0.377  0.3572  0.3481 -0.3092
 4662SOL     OW20984   1.028   5.005   1.588  0.1733 -0.0748 -0.1535
 4662SOL    HW120985   1.056   5.004   1.684  0.9964 -0.3557 -0.3945
 4662SOL    HW220986   0.971   5.086   1.571  0.8117  0.4902  0.3508
 4663SOL     OW20987   1.951   7.047   1.054  0.2711 -0.3420 -0.5361
 4663SOL    HW120988   1.860   7.075   1.026  0.3775  2.7297  1.8957
 4663SOL    HW220989   1.945   6.991   1.137  0.5790 -0.5596 -0.6592
 4664SOL     OW20990   6.989   2.522   3.924  0.4957 -0.1526  0.1830
 4664SOL    HW120991   6.982   2.447   3.858 -0.3669 -0.9221  1.1455
 4664SOL    HW220992   7.001   2.484   4.016 -0.7632  0.8861  0.7704
 4665SOL     OW20993   1.990   7.126   6.960 -0.0657 -0.4044 -0.4552
 4665SOL    HW120994   1.905   7.110   7.011 -0.4183  1.5588 -0.4093
 4665SOL    HW220995   2.058   7.165   7.022  0.3451 -0.4271 -0.8952
 4666SOL     OW20996   5.754   3.917   6.523 -0.0472 -0.6283 -0.6007
 4666SOL    HW120997   5.781   3.860   6.446  1.1519 -0.6797 -0.1521
 4666SOL    HW220998   5.799   3.885   6.606 -0.9634 -0.2831  0.0424
 4667SOL     OW20999   5.826   4.780   3.942  0.2729 -0.3521  0.4225
 4667SOL    HW121000   5.883   4.817   4.016  0.9247 -1.5358  0.5183
 4667SOL    HW221001   5.882   4.763   3.861 -0.1232 -0.6321  0.2062
 4668SOL     OW21002   1.126   2.480   5.245  0.1839  0.6189 -0.4607
 4668SOL    HW121003   1.220   2.505   5.268  0.3213  0.3001 -0.6778
 4668SOL    HW221004   1.069   2.562   5.243  0.4010  0.7807 -0.0651
 4669SOL     OW21005   3.291   5.034   2.351 -0.1847  0.8416  0.8230
 4669SOL    HW121006   3.373   5.092   2.350 -0.6189  1.4631  0.6455
 4669SOL    HW221007   3.210   5.092   2.348 -0.6364  0.1608 -3.1223
 4670SOL     OW21008   2.794   6.871   5.416  0.4795  0.1044 -0.1075
 4670SOL    HW121009   2.870   6.933   5.402  0.2038  0.0301 -2.0905
 4670SOL    HW221010   2.807   6.788   5.361 -0.0073 -0.8422  1.1567
 4671SOL     OW21011   5.576   6.313   5.230  0.3241  0.1624  0.1606
 4671SOL    HW121012   5.554   6.394   5.284  0.3569  0.6016 -0.4745
 4671SOL    HW221013   5.598   6.340   5.136 -1.8417 -0.7685 -0.6601
 4672SOL     OW21014   5.759   5.764   5.870  0.2526  0.5610 -0.1095
 4672SOL    HW121015   5.826   5.737   5.939  0.6781  0.7649 -0.4378
 4672SOL    HW221016   5.756   5.864   5.865 -0.9107  0.5748  0.7109
 4673SOL     OW21017   3.218   4.414   3.450 -0.1373  0.2759  0.5675
 4673SOL    HW121018   3.313   4.445   3.457  0.1169 -0.2258 -0.5397
 4673SOL    HW221019   3.187   4.421   3.355 -0.3774 -1.9261  0.4520
 4674SOL     OW21020   4.129   4.640   0.748  0.0718 -0.2790 -0.0163
 4674SOL    HW121021   4.125   4.542   0.726 -0.1972 -0.0665 -0.9073
 4674SOL    HW221022   4.144   4.651   0.847  1.2587 -1.2251 -0.0871
 4675SOL     OW21023   1.841   6.435   1.051  0.0943 -0.7429 -0.0282
 4675SOL    HW121024   1.912   6.504   1.038 -1.1028  0.1769 -1.8913
 4675SOL    HW221025   1.873   6.347   1.014 -0.9947  0.4888 -4.2681
 4676SOL     OW21026   3.059   3.782   2.097 -0.2173 -0.2935  0.6267
 4676SOL    HW121027   3.020   3.776   2.005 -1.4136 -0.2177  1.1189
 4676SOL    HW221028   2.986   3.797   2.163  0.5515 -1.0978  1.6805
 4677SOL     OW21029   6.757   3.367   5.815  0.0531 -0.7711 -0.1216
 4677SOL    HW121030   6.843   3.411   5.790  0.1320 -1.3367 -0.8566
 4677SOL    HW221031   6.769   3.316   5.900  0.1785 -0.0493  0.2998
 4678SOL     OW21032   0.702   3.553   4.342  0.7952 -0.5917 -0.0337
 4678SOL    HW121033   0.678   3.473   4.287  1.5894 -1.2790  0.6123
 4678SOL    HW221034   0.624   3.616   4.343  0.4701 -0.9539 -1.2451
 4679SOL     OW21035   1.091   3.238   5.945 -0.0736  0.3180 -0.1819
 4679SOL    HW121036   1.010   3.288   5.976 -0.1559  0.9594 -1.3965
 4679SOL    HW221037   1.155   3.302   5.903  1.2713 -0.1216  1.1840
 4680SOL     OW21038   0.569   5.486   0.964 -0.1505 -0.2087  0.1172
 4680SOL    HW121039   0.511   5.431   0.904 -0.9262 -1.1592  1.6896
 4680SOL    HW221040   0.636   5.426   1.009  1.2232  0.6867 -0.7249
 4681SOL     OW21041   4.507   2.864   3.917 -0.6670 -0.0713 -0.3008
 4681SOL    HW121042   4.440   2.893   3.984 -1.9394  0.1398 -1.6541
 4681SOL    HW221043   4.471   2.876   3.825  1.2107  0.0248 -1.0573
 4682SOL     OW21044   2.118   6.825   6.356  0.9509 -0.1704 -0.0901
 4682SOL    HW121045   2.059   6.819   6.275 -0.6009  0.5122  0.9589
 4682SOL    HW221046   2.181   6.901   6.345  2.1786 -1.3601 -1.5521
 4683SOL     OW21047   2.651   1.119   1.264  0.4531  0.1080 -0.1997
 4683SOL    HW121048   2.609   1.143   1.176  0.8826 -0.7364 -0.6485
 4683SOL    HW221049   2.617   1.030   1.294  1.8394 -0.5643 -0.5431
 4684SOL     OW21050   4.572   3.756   6.191  0.4614 -0.2330  0.0311
 4684SOL    HW121051   4.542   3.705   6.271 -1.8044  0.0945 -0.5929
 4684SOL    HW221052   4.546   3.707   6.108 -3.1193  2.5934 -0.6212
 4685SOL     OW21053   5.541   5.630   3.056 -0.2647 -0.5654 -0.0963
 4685SOL    HW121054   5.486   5.714   3.059 -2.0346 -1.6749 -0.6372
 4685SOL    HW221055   5.498   5.560   3.112  0.9559 -1.2631 -0.0183
 4686SOL     OW21056   3.463   2.843   7.221  0.3838  0.4481  0.2113
 4686SOL    HW121057   3.390   2.893   7.173 -0.2741 -0.0882  0.6496
 4686SOL    HW221058   3.505   2.778   7.158  0.1614  0.4216  0.0884
 4687SOL     OW21059   1.394   3.757   6.723 -0.5768  0.3501 -0.3152
 4687SOL    HW121060   1.348   3.827   6.777 -1.3379  0.5283 -1.1715
 4687SOL    HW221061   1.348   3.669   6.737  0.8300 -0.1268  1.3217
 4688SOL     OW21062   5.620   1.316   4.070 -0.5028  0.1649  0.3415
 4688SOL    HW121063   5.598   1.345   3.977 -0.7400 -0.5540  0.1758
 4688SOL    HW221064   5.541   1.270   4.110  0.6392 -2.3753 -0.2420
 4689SOL     OW21065   1.643   4.170   0.457  0.1468  0.2204 -0.0179
 4689SOL    HW121066   1.606   4.238   0.394  2.4049  0.5792 -1.0149
 4689SOL    HW221067   1.734   4.143   0.426 -0.4666 -2.8482  0.6686
 4690SOL     OW21068   4.629   1.261   6.620  0.7145  0.3026  0.0499
 4690SOL    HW121069   4.598   1.195   6.688 -4.4528  0.5422 -1.8693
 4690SOL    HW221070   4.648   1.348   6.664 -0.3306 -0.1975  1.5057
 4691SOL     OW21071   2.206   2.671   5.953  0.0291 -0.1796 -0.3586
 4691SOL    HW121072   2.133   2.631   5.898  0.4972 -0.6723 -0.6218
 4691SOL    HW221073   2.275   2.711   5.893 -0.0078  0.2684 -0.1100
 4692SOL     OW21074   3.581   2.069   6.667  0.0063  0.3045 -0.1768
 4692SOL    HW121075   3.628   2.034   6.748 -1.1783 -1.7009 -0.3201
 4692SOL    HW221076   3.492   2.025   6.659 -0.9288  2.3350 -1.2023
 4693SOL     OW21077   5.724   1.122   2.964  0.1039 -0.4474 -0.5526
 4693SOL    HW121078   5.636   1.098   2.921 -0.4968  2.6428 -1.1695
 4693SOL    HW221079   5.776   1.181   2.902  2.0712 -1.1674  0.3754
 4694SOL     OW21080   5.350   2.203   0.242 -0.2540  0.0962  0.2297
 4694SOL    HW121081   5.278   2.247   0.189 -0.1704 -1.5709 -1.3000
 4694SOL    HW221082   5.309   2.145   0.313 -0.3695  1.3540  1.2190
 4695SOL     OW21083   2.485   3.383   4.868  0.6248  0.4507 -0.4520
 4695SOL    HW121084   2.399   3.370   4.819  0.8482 -2.6570 -0.0625
 4695SOL    HW221085   2.466   3.400   4.965  0.4428  0.3981 -0.4787
 4696SOL     OW21086   0.915   0.893   6.875  0.4789  0.1140  0.0471
 4696SOL    HW121087   0.913   0.796   6.852 -1.3594  0.3492 -0.8715
 4696SOL    HW221088   0.874   0.946   6.801  1.9603  1.6691  0.2841
 4697SOL     OW21089   5.295   0.869   2.966 -0.2881  0.0353  0.5702
 4697SOL    HW121090   5.217   0.931   2.952  2.2571  3.3010  0.0746
 4697SOL    HW221091   5.335   0.886   3.056  0.8969 -0.3292  0.1278
 4698SOL     OW21092   3.870   0.731   6.304 -0.0152 -0.0296  0.0139
 4698SOL    HW121093   3.799   0.694   6.245  0.5813 -1.0815 -0.0536
 4698SOL    HW221094   3.894   0.664   6.374 -0.7510  1.2289  1.4864
 4699SOL     OW21095   6.713   0.565   0.629 -0.2420  0.1596 -0.1200
 4699SOL    HW121096   6.807   0.592   0.648  0.1777 -1.2123 -0.1386
 4699SOL    HW221097   6.665   0.545   0.714 -0.1661 -0.2237 -0.1632
 4700SOL     OW21098   6.531   1.231   6.774  0.0249  0.3984 -0.2081
 4700SOL    HW121099   6.551   1.284   6.692  2.1447 -2.2989 -1.4856
 4700SOL    HW221100   6.445   1.183   6.763 -0.3599  1.0982 -0.2885
 4701SOL     OW21101   4.427   2.260   5.932  0.1474  0.3563  0.3789
 4701SOL    HW121102   4.341   2.253   5.981 -0.0085 -0.2767  0.0305
 4701SOL    HW221103   4.410   2.292   5.839  0.3476  0.7579  0.4810
 4702SOL     OW21104   3.674   0.035   4.356 -0.2210 -0.4884  0.1834
 4702SOL    HW121105   3.674   0.073   4.448  0.2881 -3.0960  1.3228
 4702SOL    HW221106   3.584   0.049   4.314 -0.4824  0.6515  1.1166
 4703SOL     OW21107   2.173   1.111   6.501 -0.1356 -0.1990  0.3400
 4703SOL    HW121108   2.117   1.056   6.439 -0.3057 -0.7113  0.9352
 4703SOL    HW221109   2.222   1.050   6.564 -0.7911  0.3535  1.4003
 4704SOL     OW21110   2.800   5.084   6.901 -0.7303  0.1115  0.3702
 4704SOL    HW121111   2.794   5.045   6.993 -0.0285  0.9419  0.7756
 4704SOL    HW221112   2.728   5.045   6.844 -1.1075 -0.4906  1.2402
 4705SOL     OW21113   5.044   5.643   6.004  0.1775 -0.2742 -0.5479
 4705SOL    HW121114   5.047   5.682   5.911  0.4832 -0.7287 -0.7323
 4705SOL    HW221115   4.967   5.683   6.054 -0.5830 -0.7453 -1.3193
 4706SOL     OW21116   1.848   0.504   5.324  0.4552  0.4094 -0.0693
 4706SOL    HW121117   1.867   0.413   5.359  1.7493  0.5118 -0.4862
 4706SOL    HW221118   1.919   0.568   5.355 -0.9223  1.4593  0.9532
 4707SOL     OW21119   4.962   0.901   1.976 -0.3695  0.3649  0.3256
 4707SOL    HW121120   4.969   0.924   2.073  0.1322  1.2431  0.0856
 4707SOL    HW221121   5.016   0.819   1.957 -2.2352 -1.1036  1.2048
 4708SOL     OW21122   0.590   5.159   3.787  0.2782 -0.2564 -0.1575
 4708SOL    HW121123   0.576   5.184   3.883 -0.5376  0.9282 -0.5772
 4708SOL    HW221124   0.601   5.242   3.732  1.0303 -0.9379 -1.0447
 4709SOL     OW21125   6.227   5.017   4.721  0.7685  0.0321  0.1000
 4709SOL    HW121126   6.283   4.939   4.693 -2.5771 -2.0802 -0.9805
 4709SOL    HW221127   6.209   5.076   4.642 -0.1050 -0.3402  0.0145
 4710SOL     OW21128   4.529   3.255   3.014  0.0253 -0.1756 -0.6108
 4710SOL    HW121129   4.549   3.330   3.077  0.1939  0.1345 -1.0311
 4710SOL    HW221130   4.497   3.176   3.066 -1.1520  0.5222 -0.2449
 4711SOL     OW21131   0.010   0.368   7.176  0.2350  0.0225  0.1308
 4711SOL    HW121132  -0.005   0.463   7.146 -0.7296 -0.1895 -0.0833
 4711SOL    HW221133  -0.045   0.307   7.120  0.7515 -0.6549  0.3635
 4712SOL     OW21134   6.308   7.253   6.701 -0.0078  0.0533  0.2681
 4712SOL    HW121135   6.304   7.340   6.751  0.9765  0.1225  0.2281
 4712SOL    HW221136   6.237   7.191   6.737  0.9057 -0.0312  2.0249
 4713SOL     OW21137   3.243   0.378   3.296  0.0419  0.2171 -0.2180
 4713SOL    HW121138   3.184   0.331   3.361  1.1344 -0.6178  0.1851
 4713SOL    HW221139   3.223   0.345   3.203 -0.9561  0.8233 -0.2220
 4714SOL     OW21140   3.391   3.034   0.727  0.0725  0.6776  0.4725
 4714SOL    HW121141   3.479   3.073   0.754  0.7048 -0.2992 -0.1442
 4714SOL    HW221142   3.317   3.088   0.766  0.9393 -0.3354  3.6786
 4715SOL     OW21143   4.723   0.695   0.341  0.3146 -0.2392 -0.3916
 4715SOL    HW121144   4.749   0.695   0.245 -1.7464  0.4901 -0.9817
 4715SOL    HW221145   4.653   0.765   0.357 -2.7836 -3.4245  0.6526
 4716SOL     OW21146   3.493   7.134   0.823 -0.0216  0.6282 -0.1534
 4716SOL    HW121147   3.535   7.224   0.837 -0.8478  0.6207  2.7020
 4716SOL    HW221148   3.403   7.145   0.781 -0.2829  1.1717  0.5438
 4717SOL     OW21149   1.574   0.061   6.682 -0.4530  0.0431  0.4746
 4717SOL    HW121150   1.642   0.130   6.709 -0.6813 -0.3325  2.0353
 4717SOL    HW221151   1.603   0.018   6.596  1.7769 -0.7641  1.5790
 4718SOL     OW21152   6.515   1.893   0.929 -0.1932  0.3992  0.1958
 4718SOL    HW121153   6.480   1.972   0.878  0.4054  0.3068 -0.3751
 4718SOL    HW221154   6.560   1.830   0.865  1.0258  0.5291  0.9226
 4719SOL     OW21155   1.257   4.697   3.615 -0.1266 -0.3946 -0.2279
 4719SOL    HW121156   1.192   4.627   3.589  0.9202 -0.9495 -1.3884
 4719SOL    HW221157   1.290   4.745   3.534  0.0784  0.6330  0.4431
 4720SOL     OW21158   5.823   5.498   4.257 -0.1703  1.0180  0.3456
 4720SOL    HW121159   5.731   5.495   4.294  0.7598  0.2673  2.6707
 4720SOL    HW221160   5.868   5.410   4.272  0.7198  1.1629 -1.3337
 4721SOL     OW21161   4.133   1.083   7.272 -0.3866 -0.1006  0.0809
 4721SOL    HW121162   4.205   1.040   7.326  0.6483  0.3629 -0.9300
 4721SOL    HW221163   4.069   1.013   7.239  0.0931 -0.6068  0.2314
 4722SOL     OW21164   3.835   1.729   5.682 -0.0725 -0.0375 -1.0620
 4722SOL    HW121165   3.777   1.781   5.744  2.4535 -1.1353  2.3785
 4722SOL    HW221166   3.819   1.631   5.696 -0.2392 -0.3156 -2.9883
 4723SOL     OW21167   1.749   2.223   1.216  0.0564  0.0500  0.5854
 4723SOL    HW121168   1.827   2.265   1.261  0.4603 -0.8219  0.7130
 4723SOL    HW221169   1.702   2.162   1.281 -0.7604  0.5978  0.5270
 4724SOL     OW21170   3.120   6.518   0.991 -0.5122  0.3268 -0.2832
 4724SOL    HW121171   3.079   6.601   1.028 -0.2117  0.2804  0.1496
 4724SOL    HW221172   3.148   6.458   1.066  0.4756  0.4191 -0.5726
 4725SOL     OW21173   0.511   0.533   2.122 -0.5676  0.1186  0.7360
 4725SOL    HW121174   0.567   0.587   2.059 -0.6559  0.3923  0.8887
 4725SOL    HW221175   0.425   0.508   2.077  0.3637 -1.7156 -0.0747
 4726SOL     OW21176   1.550   1.643   1.551  0.0046  0.2447 -0.2776
 4726SOL    HW121177   1.541   1.559   1.605  1.1820 -0.5651 -1.3434
 4726SOL    HW221178   1.509   1.630   1.461 -0.7806  1.1752 -0.0686
 4727SOL     OW21179   3.292   3.378   6.472 -0.3892  0.2050 -0.3531
 4727SOL    HW121180   3.260   3.346   6.383  0.0029  2.4415 -1.3347
 4727SOL    HW221181   3.218   3.370   6.539 -1.0120 -0.5266 -1.1088
 4728SOL     OW21182   2.113   3.628   2.295 -0.0923 -0.2164  0.3124
 4728SOL    HW121183   2.141   3.605   2.202 -0.0146  2.0410 -0.2680
 4728SOL    HW221184   2.192   3.665   2.345 -0.8824  1.6187  0.2222
 4729SOL     OW21185   5.765   3.180   3.211 -0.0784 -0.0061  0.6179
 4729SOL    HW121186   5.678   3.131   3.211  0.1848 -0.4658 -0.1786
 4729SOL    HW221187   5.768   3.242   3.133 -0.0759  0.7064  1.1706
 4730SOL     OW21188   5.815   6.372   2.086 -0.2280 -0.1064 -0.1940
 4730SOL    HW121189   5.876   6.318   2.145 -1.6167 -0.7400  0.7029
 4730SOL    HW221190   5.854   6.378   1.994  0.7841 -1.1914  0.1439
 4731SOL     OW21191   6.695   1.686   5.998 -0.3109 -0.3357 -0.2189
 4731SOL    HW121192   6.752   1.756   5.955 -1.3209  0.4727 -0.2409
 4731SOL    HW221193   6.664   1.719   6.087  0.5166 -1.3952  0.4731
 4732SOL     OW21194   5.697   2.046   4.897  0.1756 -0.2037  0.4787
 4732SOL    HW121195   5.663   1.991   4.821  0.5564  1.7085 -1.1218
 4732SOL    HW221196   5.624   2.060   4.964 -0.6679 -0.4848 -0.3743
 4733SOL     OW21197   7.254   4.715   3.353 -0.1303 -0.2441  0.4427
 4733SOL    HW121198   7.263   4.650   3.277  0.8020  0.9154 -0.4488
 4733SOL    HW221199   7.317   4.688   3.426 -0.2187 -0.7148  0.3493
 4734SOL     OW21200   6.133   5.398   0.077  0.0277 -0.3789  0.1253
 4734SOL    HW121201   6.156   5.339   0.155  0.1073  0.5361  0.8049
 4734SOL    HW221202   6.110   5.341  -0.002  1.7040 -1.3135  0.2953
 4735SOL     OW21203   5.590   0.570   1.471  0.1829 -0.0824  0.5759
 4735SOL    HW121204   5.543   0.611   1.393 -0.4672  0.6424  1.3355
 4735SOL    HW221205   5.664   0.511   1.439  0.4935  0.9186 -0.5569
 4736SOL     OW21206   3.751   1.771   0.554  0.0038 -0.1653 -0.2310
 4736SOL    HW121207   3.742   1.736   0.461  0.2804 -1.0834  0.0819
 4736SOL    HW221208   3.754   1.871   0.552 -0.7681 -0.1554 -1.1362
 4737SOL     OW21209   0.293   1.319   0.358 -0.4782 -0.1590 -0.6779
 4737SOL    HW121210   0.393   1.330   0.359 -0.6209  1.1784 -0.0222
 4737SOL    HW221211   0.271   1.223   0.343  0.9993 -1.2745  3.4403
 4738SOL     OW21212   3.149   6.842   5.609  0.0537  0.7708 -0.1405
 4738SOL    HW121213   3.139   6.743   5.592  1.2189  0.7927 -1.0842
 4738SOL    HW221214   3.093   6.868   5.687  0.0648 -0.7297  0.4010
 4739SOL     OW21215   6.145   2.017   0.816 -0.0852 -0.0685  0.7442
 4739SOL    HW121216   6.059   2.050   0.854  0.4885  1.1399  1.0093
 4739SOL    HW221217   6.126   1.952   0.742 -1.2177  0.2401  0.7553
 4740SOL     OW21218   6.253   2.924   4.877 -0.0656 -0.0173 -0.1276
 4740SOL    HW121219   6.278   2.866   4.955 -0.7443  1.2296  1.0401
 4740SOL    HW221220   6.154   2.922   4.865 -0.1529  1.3284  0.2774
 4741SOL     OW21221   6.364   1.600   5.556 -0.3585 -0.0260  0.1243
 4741SOL    HW121222   6.311   1.634   5.634  0.7904 -1.9835  1.7982
 4741SOL    HW221223   6.303   1.590   5.477 -2.1484 -0.6307  1.5315
 4742SOL     OW21224   2.764   3.684   3.782  0.4018  0.5155 -0.1369
 4742SOL    HW121225   2.847   3.730   3.812 -0.4010  2.6668 -1.1040
 4742SOL    HW221226   2.684   3.727   3.824 -0.3207 -0.7259 -0.1899
 4743SOL     OW21227   5.563   6.392   3.884 -0.5234 -0.3620 -0.2455
 4743SOL    HW121228   5.625   6.470   3.880 -0.4536 -0.2400  2.1041
 4743SOL    HW221229   5.502   6.402   3.963  0.5359 -3.4151  1.0632
 4744SOL     OW21230   5.591   1.215   0.846 -0.4658  0.5974 -0.0080
 4744SOL    HW121231   5.649   1.150   0.894 -0.0407 -0.1455 -1.5238
 4744SOL    HW221232   5.515   1.167   0.803  0.0417  1.0442 -1.4289
 4745SOL     OW21233   2.153   4.046   2.617  0.6123  0.0678 -0.2366
 4745SOL    HW121234   2.123   4.053   2.712  0.6260  1.2347 -0.3047
 4745SOL    HW221235   2.253   4.055   2.613  0.7856 -1.7516 -0.2007
 4746SOL     OW21236   0.988   6.605   7.038 -0.0528 -0.6383 -0.3599
 4746SOL    HW121237   0.978   6.506   7.050 -1.1342 -0.5286 -0.2443
 4746SOL    HW221238   0.973   6.651   7.126  0.0119 -0.3484 -0.4984
 4747SOL     OW21239   5.032   4.754   5.125  0.2405  0.5656 -0.6530
 4747SOL    HW121240   5.027   4.848   5.093 -0.9436  0.5411 -0.5843
 4747SOL    HW221241   5.116   4.711   5.092  0.8692  1.6959 -0.5298
 4748SOL     OW21242   4.564   6.806   2.531 -0.2883  0.0779  0.0998
 4748SOL    HW121243   4.519   6.867   2.465  0.4071  2.0054  1.3419
 4748SOL    HW221244   4.639   6.758   2.486 -0.0197  1.1303 -0.6051
 4749SOL     OW21245   6.906   5.435   6.884 -0.2610  0.6112 -0.3736
 4749SOL    HW121246   6.890   5.502   6.812  1.2903 -1.4382 -2.6843
 4749SOL    HW221247   6.897   5.480   6.973  0.6861  3.8762 -1.8359
 4750SOL     OW21248   3.739   6.093   3.257 -0.2743  0.2218 -0.1915
 4750SOL    HW121249   3.673   6.138   3.197 -0.2825  0.4326 -0.0273
 4750SOL    HW221250   3.831   6.120   3.230 -0.2826  0.4039 -0.0410
 4751SOL     OW21251   0.155   2.660   1.106  0.3801  0.3832 -0.7376
 4751SOL    HW121252   0.165   2.576   1.052  1.3537 -0.2278  0.3632
 4751SOL    HW221253   0.246   2.692   1.134  0.0239  1.8557 -1.2126
 4752SOL     OW21254   6.427   5.897   0.701  0.3467  0.1869  0.3229
 4752SOL    HW121255   6.460   5.834   0.630  1.5800  0.4627  0.6302
 4752SOL    HW221256   6.424   5.850   0.789  1.9425  0.7239  0.6853
 4753SOL     OW21257   2.582   3.229   6.188 -0.6355 -0.1987  0.4360
 4753SOL    HW121258   2.499   3.285   6.190 -0.2363  0.4478 -0.8922
 4753SOL    HW221259   2.649   3.270   6.126  0.5660 -0.8839  1.2581
 4754SOL     OW21260   1.133   5.666   0.884  0.2134  0.1169  0.1769
 4754SOL    HW121261   1.144   5.764   0.902 -1.1137  0.4420 -0.7040
 4754SOL    HW221262   1.039   5.639   0.900  0.6104 -1.0603  0.5643
 4755SOL     OW21263   1.568   3.935   6.203 -0.0930 -0.5425  0.2958
 4755SOL    HW121264   1.632   3.953   6.128 -1.0611 -0.4682 -0.5164
 4755SOL    HW221265   1.583   4.002   6.276  0.4979 -0.2912 -0.0503
 4756SOL     OW21266   6.268   0.397   1.320  0.5153 -0.4193 -0.0429
 4756SOL    HW121267   6.351   0.352   1.287  0.6004  0.4329 -1.0210
 4756SOL    HW221268   6.211   0.423   1.242 -0.5216 -0.7091  0.6088
 4757SOL     OW21269   4.188   2.207   7.340 -0.1362 -0.7156  0.1977
 4757SOL    HW121270   4.174   2.116   7.302 -0.3022 -1.8079  2.7446
 4757SOL    HW221271   4.101   2.255   7.343  0.2453  0.2106 -2.7577
 4758SOL     OW21272   2.682   2.955   1.592 -0.0762 -0.0372 -0.1231
 4758SOL    HW121273   2.618   3.032   1.588  0.7783  0.7178  0.4410
 4758SOL    HW221274   2.643   2.882   1.648 -0.5221  0.3459  0.0643
 4759SOL     OW21275   2.989   7.214   5.429 -0.2859  0.0349  0.1218
 4759SOL    HW121276   2.890   7.223   5.417  0.0146  0.4909 -2.2187
 4759SOL    HW221277   3.016   7.120   5.407  0.0159  0.3821 -1.0606
 4760SOL     OW21278   6.218   0.377   0.832 -0.6210 -0.0926  0.1865
 4760SOL    HW121279   6.202   0.279   0.846 -3.8077 -0.0577 -2.4491
 4760SOL    HW221280   6.316   0.397   0.841  0.1586 -3.6026  0.1655
 4761SOL     OW21281   6.918   1.920   2.756 -0.1269 -0.2250  0.4363
 4761SOL    HW121282   6.843   1.953   2.814  0.2119 -1.4815  1.6371
 4761SOL    HW221283   6.885   1.843   2.701 -0.0454  0.0008  0.0780
 4762SOL     OW21284   1.502   7.109   7.063 -0.3273  0.3646 -0.2870
 4762SOL    HW121285   1.436   7.107   7.138 -0.4737 -1.6455 -0.4347
 4762SOL    HW221286   1.475   7.178   6.997 -0.9606  1.2039  0.8336
 4763SOL     OW21287   5.181   6.394   6.391 -0.0859 -0.8718  0.3317
 4763SOL    HW121288   5.104   6.371   6.332 -0.3577  1.5110 -0.2985
 4763SOL    HW221289   5.148   6.418   6.482 -0.3390  2.2273 -0.5280
 4764SOL     OW21290   4.280   1.730   2.619  0.1993 -0.2754 -0.3476
 4764SOL    HW121291   4.216   1.806   2.610 -0.3849 -0.9338 -1.9732
 4764SOL    HW221292   4.234   1.653   2.662  0.1191 -0.4826 -0.8012
 4765SOL     OW21293   2.522   5.894   3.354 -0.3313 -0.6455  0.2134
 4765SOL    HW121294   2.582   5.974   3.350 -0.1474 -0.7667  0.5831
 4765SOL    HW221295   2.469   5.896   3.439 -1.8922  0.2130 -0.7390
 4766SOL     OW21296   3.231   0.515   3.581  0.8778  0.1419 -0.1703
 4766SOL    HW121297   3.210   0.419   3.561 -1.0584  0.0434  1.9879
 4766SOL    HW221298   3.288   0.519   3.663 -0.7339  0.8727  0.9421
 4767SOL     OW21299   2.899   0.247   3.750  0.0209  0.3408 -0.4369
 4767SOL    HW121300   2.938   0.228   3.840 -0.8341 -2.0024 -0.5113
 4767SOL    HW221301   2.940   0.330   3.712  1.5548  0.4585  1.4076
 4768SOL     OW21302   5.024   0.124   0.353  0.0555  0.0634  0.0042
 4768SOL    HW121303   5.027   0.221   0.332 -0.4333 -0.1890 -1.3028
 4768SOL    HW221304   5.010   0.111   0.451  2.5820  1.2965  0.5783
 4769SOL     OW21305   1.574   2.445   0.845  0.5583  0.3011  0.2897
 4769SOL    HW121306   1.597   2.352   0.873  1.8490  0.7281  0.6893
 4769SOL    HW221307   1.517   2.442   0.763 -0.3509 -0.8637  0.9468
 4770SOL     OW21308   7.039   5.943   7.185  0.3019  0.8669 -0.0048
 4770SOL    HW121309   7.027   5.898   7.273 -0.7468 -0.2061 -0.6793
 4770SOL    HW221310   6.950   5.953   7.140  0.8264  1.3708 -0.9499
 4771SOL     OW21311   3.642   7.309   6.704 -0.5341 -0.1147 -0.1648
 4771SOL    HW121312   3.688   7.348   6.625 -1.1996  0.1035 -0.4487
 4771SOL    HW221313   3.655   7.369   6.783 -2.0429  0.9910 -0.7392
 4772SOL     OW21314   5.057   6.008   5.303  0.8746 -0.0845  0.0563
 4772SOL    HW121315   5.156   5.999   5.314  0.7262 -1.4877  0.2869
 4772SOL    HW221316   5.014   5.919   5.316 -0.3523  0.3770 -0.7899
 4773SOL     OW21317   0.950   2.086   0.861 -0.4201 -0.3995 -0.0418
 4773SOL    HW121318   0.974   2.181   0.880  0.4632 -1.2884  3.6762
 4773SOL    HW221319   1.034   2.033   0.844 -0.7801 -0.8468 -0.4406
 4774SOL     OW21320   0.758   1.671   2.587  0.1731 -0.3849  0.2890
 4774SOL    HW121321   0.840   1.655   2.532  0.3288 -1.4794  0.8302
 4774SOL    HW221322   0.677   1.656   2.531  0.3367 -0.4462  0.0665
 4775SOL     OW21323   0.230   5.733   6.036  0.1323 -0.0312 -0.3812
 4775SOL    HW121324   0.250   5.784   6.119 -2.4615 -1.0720  0.9422
 4775SOL    HW221325   0.265   5.782   5.957  2.0366  1.3137  1.2491
 4776SOL     OW21326   1.656   1.131   6.859  0.6507  0.0286 -0.2811
 4776SOL    HW121327   1.741   1.079   6.855  0.8969 -0.1751  4.6437
 4776SOL    HW221328   1.581   1.072   6.887 -0.8587  0.5819 -2.9375
 4777SOL     OW21329   2.756   5.735   1.014  0.1386  0.1564 -0.3767
 4777SOL    HW121330   2.753   5.703   0.919 -0.5420 -0.6595 -0.0867
 4777SOL    HW221331   2.680   5.694   1.065  0.2405  0.9464  0.4074
 4778SOL     OW21332   3.194   3.174   4.202 -0.7903 -0.0265  0.3336
 4778SOL    HW121333   3.182   3.237   4.279 -2.6932 -1.0676  0.9287
 4778SOL    HW221334   3.212   3.082   4.237 -0.2257 -0.2299 -0.4946
 4779SOL     OW21335   4.677   2.677   4.478  0.1461 -0.2414 -0.1328
 4779SOL    HW121336   4.734   2.624   4.415  1.5917  2.2855 -1.0127
 4779SOL    HW221337   4.582   2.674   4.448  0.4536 -0.9984 -1.0706
 4780SOL     OW21338   4.720   6.223   4.467  1.0205 -0.1715 -0.0664
 4780SOL    HW121339   4.684   6.232   4.374  0.8199 -1.4660 -0.1286
 4780SOL    HW221340   4.767   6.135   4.476 -1.6329 -1.4476  1.9206
 4781SOL     OW21341   1.548   5.709   3.139  0.3340 -0.1522 -0.4699
 4781SOL    HW121342   1.488   5.658   3.202  0.7409 -1.2188 -0.9302
 4781SOL    HW221343   1.643   5.688   3.160  0.5592  1.3431  0.0900
 4782SOL     OW21344   3.080   2.074   2.236  0.0591 -0.2411  0.1677
 4782SOL    HW121345   3.144   2.050   2.308 -0.5976 -0.9162  0.5312
 4782SOL    HW221346   3.029   1.992   2.208 -0.2854  0.1868 -0.4656
 4783SOL     OW21347   5.240   0.245   7.337 -0.5724 -0.2708 -0.2671
 4783SOL    HW121348   5.316   0.195   7.296 -1.4540 -1.0565 -0.9651
 4783SOL    HW221349   5.154   0.207   7.304 -1.2758  2.1377 -1.3275
 4784SOL     OW21350   3.990   0.585   1.922 -0.2667  0.3908 -0.4179
 4784SOL    HW121351   4.024   0.655   1.985 -0.5549  1.4087 -1.3699
 4784SOL    HW221352   4.039   0.594   1.834 -0.0449 -0.8424 -0.4195
 4785SOL     OW21353   4.655   4.652   2.442 -0.1351  0.5232  0.3628
 4785SOL    HW121354   4.558   4.652   2.466  0.2355  0.3139  1.9632
 4785SOL    HW221355   4.708   4.617   2.520  1.3827  2.2876  0.1610
 4786SOL     OW21356   7.100   1.912   3.436  0.0375 -0.6074  0.4749
 4786SOL    HW121357   7.159   1.843   3.393  0.0418 -1.0356  1.1420
 4786SOL    HW221358   7.005   1.880   3.435 -0.1290 -0.0995 -0.2393
 4787SOL     OW21359   4.758   0.481   5.808 -0.1940  0.1827  0.5562
 4787SOL    HW121360   4.853   0.481   5.838  0.2463 -0.3034 -0.8084
 4787SOL    HW221361   4.745   0.411   5.738 -0.8830  2.1805 -1.3628
 4788SOL     OW21362   2.771   1.371   1.306  0.2923 -0.5062 -0.1668
 4788SOL    HW121363   2.723   1.289   1.274 -1.1822  1.4556 -3.2087
 4788SOL    HW221364   2.726   1.406   1.388 -0.1608 -1.7268  0.1165
 4789SOL     OW21365   3.851   7.135   7.236 -0.0825 -0.4559  0.2391
 4789SOL    HW121366   3.926   7.112   7.174  0.1044  1.9960 -0.4881
 4789SOL    HW221367   3.764   7.118   7.190  0.0546  1.5871 -0.8459
 4790SOL     OW21368   3.384   2.005   1.893  0.6075  0.1444 -0.1705
 4790SOL    HW121369   3.327   2.068   1.947 -1.5808 -0.8247 -1.2686
 4790SOL    HW221370   3.329   1.966   1.819  3.1422  0.3015 -2.2182
 4791SOL     OW21371   1.484   0.998   3.744  0.9767  0.0128  0.8084
 4791SOL    HW121372   1.499   0.919   3.684  1.4061  0.5009  0.2686
 4791SOL    HW221373   1.513   1.082   3.697 -0.3349  0.5968  1.0215
 4792SOL     OW21374   3.005   4.699   0.031  0.7330 -0.0739  0.5401
 4792SOL    HW121375   3.048   4.633   0.092  1.7052  0.4237  0.4077
 4792SOL    HW221376   3.073   4.732  -0.036 -0.5255 -1.2337 -1.3546
 4793SOL     OW21377   6.140   5.935   5.973 -0.4920 -0.3467  0.2751
 4793SOL    HW121378   6.118   6.030   5.952  0.1836  0.3677  2.5757
 4793SOL    HW221379   6.239   5.924   5.980 -0.5983 -1.0064  0.8773
 4794SOL     OW21380   3.293   1.935   0.440 -0.2789 -0.4370 -0.0202
 4794SOL    HW121381   3.368   1.940   0.507 -0.1695 -0.6434 -0.1277
 4794SOL    HW221382   3.216   1.886   0.480 -0.0754 -0.8847 -0.1758
 4795SOL     OW21383   4.595   2.547   4.708 -0.2920 -0.2664 -0.6377
 4795SOL    HW121384   4.644   2.463   4.733 -2.7769 -1.5700  0.0608
 4795SOL    HW221385   4.625   2.577   4.617  2.4489 -0.4633  0.1629
 4796SOL     OW21386   6.788   4.935   4.088  0.0261 -0.2425  0.1028
 4796SOL    HW121387   6.735   4.989   4.023 -1.3730 -1.2787  0.3728
 4796SOL    HW221388   6.792   4.982   4.176 -0.9471 -0.4450  0.2553
 4797SOL     OW21389   6.513   1.195   5.960 -0.0868  0.1526  0.5744
 4797SOL    HW121390   6.516   1.295   5.956  1.9975  0.1806  1.8015
 4797SOL    HW221391   6.550   1.157   5.876  0.1090  0.4223  0.5393
 4798SOL     OW21392   1.774   1.011   3.578 -0.1556 -0.1013 -0.2267
 4798SOL    HW121393   1.711   1.087   3.559 -1.0761 -0.6860  0.4305
 4798SOL    HW221394   1.723   0.925   3.576  0.7052 -0.6149 -0.0396
 4799SOL     OW21395   0.817   3.206   3.966 -0.2094  0.0140  0.0867
 4799SOL    HW121396   0.899   3.249   3.929 -0.2501  0.3037  0.3237
 4799SOL    HW221397   0.783   3.137   3.902 -0.3753  0.6252 -0.4875
 4800SOL     OW21398   4.101   0.020   5.342 -0.9867 -0.3247  0.0633
 4800SOL    HW121399   4.180   0.073   5.373 -2.1384  1.3811  0.1487
 4800SOL    HW221400   4.101  -0.070   5.386  0.6083 -0.1408  0.4571
 4801SOL     OW21401   1.378   3.145   0.847 -0.0858 -0.2680  0.4519
 4801SOL    HW121402   1.376   3.228   0.792  1.2038 -2.3343 -2.8393
 4801SOL    HW221403   1.294   3.093   0.831 -0.1405 -0.4188  1.2080
 4802SOL     OW21404   2.522   5.005   2.051 -0.0698  0.3648 -0.0495
 4802SOL    HW121405   2.521   4.995   1.951 -2.0875  0.5076 -0.0659
 4802SOL    HW221406   2.489   4.921   2.093  0.3760  0.4565  0.4805
 4803SOL     OW21407   1.436   3.231   3.331  0.1555 -0.1355  0.4636
 4803SOL    HW121408   1.482   3.155   3.285 -0.5338 -0.2011 -0.1273
 4803SOL    HW221409   1.460   3.231   3.428  1.0419 -0.4379  0.2508
 4804SOL     OW21410   7.150   2.230   6.075 -0.1755 -0.8926 -0.4133
 4804SOL    HW121411   7.167   2.137   6.108  3.6072 -0.4967 -1.0969
 4804SOL    HW221412   7.123   2.228   5.979  0.9610 -1.2181 -0.7257
 4805SOL     OW21413   3.256   5.495   5.826  0.0754  0.3593  0.2247
 4805SOL    HW121414   3.217   5.535   5.744 -0.5447 -0.1708  0.2511
 4805SOL    HW221415   3.356   5.494   5.820  0.0167 -0.2163 -0.7792
 4806SOL     OW21416   6.699   4.081   1.319 -0.6531  0.7225 -0.1353
 4806SOL    HW121417   6.685   4.151   1.248  0.0185  0.4699 -0.5175
 4806SOL    HW221418   6.664   4.115   1.406 -0.1022  1.6412 -0.2609
 4807SOL     OW21419   3.819   0.105   6.566 -0.7265  0.0952 -0.2013
 4807SOL    HW121420   3.804   0.202   6.588 -0.4179 -0.0484  0.6645
 4807SOL    HW221421   3.807   0.091   6.468  0.3772  1.2217 -0.5031
 4808SOL     OW21422   0.927   2.838   6.098  0.1807 -0.0923 -0.6054
 4808SOL    HW121423   0.993   2.766   6.120  2.0162  1.8608  0.4575
 4808SOL    HW221424   0.870   2.856   6.178 -0.0261 -0.1026 -0.7510
 4809SOL     OW21425   4.356   7.206   3.091  0.0578  0.1089  0.1323
 4809SOL    HW121426   4.333   7.295   3.050  2.3650  2.1528  3.0642
 4809SOL    HW221427   4.430   7.164   3.039 -2.2340 -0.9943 -2.3321
 4810SOL     OW21428   0.936   4.184   4.519  0.1881 -0.8053  0.2595
 4810SOL    HW121429   0.912   4.101   4.470 -0.4538 -1.0641  0.9886
 4810SOL    HW221430   0.967   4.161   4.612 -0.0078 -0.2376  0.4728
 4811SOL     OW21431   2.777   2.523   2.141 -0.5151 -0.0330  0.3340
 4811SOL    HW121432   2.735   2.603   2.099  0.5527 -0.4280 -1.5789
 4811SOL    HW221433   2.734   2.440   2.104  0.0231 -0.3815  0.4878
 4812SOL     OW21434   4.257   3.186   4.896 -0.2482 -0.2235  0.4799
 4812SOL    HW121435   4.324   3.254   4.868 -1.7121  1.0217 -0.0738
 4812SOL    HW221436   4.265   3.169   4.995  1.0881 -0.3438  0.3573
 4813SOL     OW21437   7.292   3.706   6.121 -0.4510 -0.2548  0.1192
 4813SOL    HW121438   7.253   3.750   6.040  0.5231  0.1696 -0.1194
 4813SOL    HW221439   7.384   3.740   6.137  1.3123 -3.8796 -1.5053
 4814SOL     OW21440   5.534   2.461   2.830  0.2842 -0.3909  0.3627
 4814SOL    HW121441   5.553   2.468   2.732  0.2552 -0.8156  0.3280
 4814SOL    HW221442   5.459   2.397   2.845 -0.3207  0.3501  0.5937
 4815SOL     OW21443   0.353   1.645   1.992  0.4052  0.3090 -0.4081
 4815SOL    HW121444   0.280   1.655   1.925  0.3098  1.2163 -0.1784
 4815SOL    HW221445   0.335   1.566   2.050  1.2891 -1.4604 -2.4392
 4816SOL     OW21446   2.082   0.460   1.222 -0.9693  0.5681  0.4898
 4816SOL    HW121447   2.011   0.399   1.187 -0.5555  0.6094 -0.4627
 4816SOL    HW221448   2.062   0.554   1.194 -0.2145  0.4924 -0.3446
 4817SOL     OW21449   0.621   5.714   1.590  0.2076 -0.1217 -0.6647
 4817SOL    HW121450   0.545   5.776   1.612  0.4255 -0.3535  0.8218
 4817SOL    HW221451   0.615   5.686   1.494 -1.0538  0.6012 -0.8069
 4818SOL     OW21452   6.666   5.699   5.349 -0.2108 -0.3863 -0.3160
 4818SOL    HW121453   6.599   5.724   5.279  0.9345 -0.5624 -1.5113
 4818SOL    HW221454   6.756   5.734   5.322  0.0354  0.4995  1.6333
 4819SOL     OW21455   0.983   3.349   0.165 -0.2062  0.0038 -0.0697
 4819SOL    HW121456   0.965   3.447   0.174  0.3526 -0.0229  1.4605
 4819SOL    HW221457   1.032   3.316   0.246 -0.3553 -1.5361 -0.5850
 4820SOL     OW21458   6.207   5.518   3.290 -0.1956 -0.0035 -0.5462
 4820SOL    HW121459   6.164   5.430   3.309 -0.3974  0.2802  0.3213
 4820SOL    HW221460   6.198   5.539   3.192 -1.9468  0.0065 -0.4020
 4821SOL     OW21461   4.608   4.474   5.881  0.2068  0.3174 -0.7343
 4821SOL    HW121462   4.547   4.503   5.955 -0.7841  0.5152 -1.6285
 4821SOL    HW221463   4.670   4.404   5.916 -1.0401 -0.4576 -0.0077
 4822SOL     OW21464   7.048   4.029   4.026 -0.1043 -0.6076 -0.4416
 4822SOL    HW121465   6.957   4.029   3.984 -0.2267 -0.6422 -0.1798
 4822SOL    HW221466   7.049   3.967   4.104  0.3026 -1.0207 -0.7713
 4823SOL     OW21467   6.246   0.127   7.245 -0.0686 -0.6996  0.2157
 4823SOL    HW121468   6.310   0.061   7.204 -1.2102 -1.5823 -0.1591
 4823SOL    HW221469   6.296   0.185   7.310  1.5116 -0.1206 -1.4670
 4824SOL     OW21470   0.876   3.638   6.424 -0.0705 -0.0100  0.5689
 4824SOL    HW121471   0.970   3.645   6.456 -0.6107  1.5675  1.9023
 4824SOL    HW221472   0.836   3.552   6.454  0.2806  0.2678  1.8752
 4825SOL     OW21473   3.489   3.109   1.762 -0.2724 -0.2886 -0.2670
 4825SOL    HW121474   3.474   3.093   1.665  2.6055  0.4780 -0.8889
 4825SOL    HW221475   3.498   3.021   1.810 -0.6579 -0.6575 -0.8741
 4826SOL     OW21476   6.407   2.708   3.179 -0.3128 -0.4268 -0.1102
 4826SOL    HW121477   6.327   2.758   3.213  0.3774  0.7774 -0.2289
 4826SOL    HW221478   6.439   2.751   3.094  0.4842 -0.8828 -0.0478
 4827SOL     OW21479   4.525   6.796   6.389  0.4812 -0.0101 -0.4312
 4827SOL    HW121480   4.458   6.864   6.417 -1.5283 -2.0711 -0.1198
 4827SOL    HW221481   4.508   6.770   6.294 -0.5638 -2.1546  0.3316
 4828SOL     OW21482   5.401   3.443   5.632 -0.5106  0.2202  0.1312
 4828SOL    HW121483   5.403   3.480   5.539  0.7352 -0.4013 -0.1027
 4828SOL    HW221484   5.306   3.424   5.659 -0.8047 -0.5674 -1.4006
 4829SOL     OW21485   1.087   0.798   5.750  0.0851 -0.1842  0.2666
 4829SOL    HW121486   1.161   0.811   5.684  0.1840 -2.0781 -0.0463
 4829SOL    HW221487   1.005   0.766   5.702 -0.0580 -0.8885  0.9609
 4830SOL     OW21488   5.621   0.424   4.679  0.3617  0.2165  0.1172
 4830SOL    HW121489   5.644   0.517   4.708 -0.4875  0.6260 -0.4809
 4830SOL    HW221490   5.690   0.360   4.713  2.4219  1.4085 -1.6840
 4831SOL     OW21491   4.581   6.151   3.824 -0.5010  0.2978 -0.3352
 4831SOL    HW121492   4.523   6.076   3.856 -1.6220  1.5921  0.7329
 4831SOL    HW221493   4.661   6.159   3.884 -1.7691  1.6726  1.2253
 4832SOL     OW21494   2.461   1.908   6.232 -0.0629 -0.0745 -0.0290
 4832SOL    HW121495   2.364   1.882   6.232 -0.3389  0.8045  2.1096
 4832SOL    HW221496   2.475   1.986   6.172 -1.4121  2.1204  2.3986
 4833SOL     OW21497   4.849   3.915   2.547 -0.3151 -0.3434  0.4072
 4833SOL    HW121498   4.752   3.903   2.526 -0.1438 -0.8293 -0.1246
 4833SOL    HW221499   4.892   3.826   2.554  1.0563 -0.1379 -3.9168
 4834SOL     OW21500   6.235   0.882   1.300 -0.1847  0.7804 -0.3406
 4834SOL    HW121501   6.292   0.908   1.379 -2.3519  0.1605  1.4938
 4834SOL    HW221502   6.169   0.812   1.329 -1.3970  0.9622 -2.5990
 4835SOL     OW21503   4.722   1.488   0.055 -0.0457 -0.0199 -0.3822
 4835SOL    HW121504   4.693   1.544  -0.023 -0.1774 -0.6076 -0.7662
 4835SOL    HW221505   4.732   1.545   0.136  0.8008  0.7266 -1.0010
 4836SOL     OW21506   0.264   0.085   2.302 -0.8281  0.1714  0.2087
 4836SOL    HW121507   0.317   0.170   2.307 -1.9124  0.9594 -1.3645
 4836SOL    HW221508   0.233   0.060   2.394  0.0157  1.1365  0.7649
 4837SOL     OW21509   3.765   2.935   6.618 -0.5692 -0.1861  0.5199
 4837SOL    HW121510   3.784   3.014   6.559 -0.7065  0.4865  1.3492
 4837SOL    HW221511   3.821   2.857   6.590 -2.1243 -0.5194 -1.7983
 4838SOL     OW21512   7.007   5.781   2.057  0.2023 -0.0738  0.4513
 4838SOL    HW121513   7.048   5.702   2.012 -0.1111  0.1639 -0.2591
 4838SOL    HW221514   7.024   5.776   2.155  2.6082  0.4177  0.0787
 4839SOL     OW21515   3.845   0.999   6.746  0.3166 -0.4663 -0.1379
 4839SOL    HW121516   3.793   0.945   6.680  0.3269  0.6709 -1.0956
 4839SOL    HW221517   3.943   0.991   6.725  0.2436  0.9207 -1.0734
 4840SOL     OW21518   5.008   6.450   0.462  0.0039 -0.1953  0.0903
 4840SOL    HW121519   5.077   6.521   0.460 -1.0019  0.7989 -3.0370
 4840SOL    HW221520   4.926   6.485   0.507 -0.3249  0.5149 -1.0262
 4841SOL     OW21521   6.178   2.348   6.374 -0.4407 -0.5215  0.2919
 4841SOL    HW121522   6.236   2.373   6.297 -0.0695 -1.9465  0.0826
 4841SOL    HW221523   6.208   2.395   6.456 -1.6211  2.0044 -0.6731
 4842SOL     OW21524   2.750   4.717   7.336  0.5124  0.7264  0.5506
 4842SOL    HW121525   2.734   4.806   7.378  3.6150  0.2844  2.8355
 4842SOL    HW221526   2.848   4.697   7.335 -0.0983 -2.5189 -0.1950
 4843SOL     OW21527   5.036   1.390   5.862  0.9894 -0.2723  0.0935
 4843SOL    HW121528   5.002   1.427   5.775  2.3899 -0.7942 -0.7081
 4843SOL    HW221529   4.984   1.428   5.938  1.6075  2.4307 -0.7750
 4844SOL     OW21530   5.409   6.764   5.001 -0.0745  0.6043  0.2048
 4844SOL    HW121531   5.451   6.676   4.982 -0.5698  0.7046 -1.5394
 4844SOL    HW221532   5.354   6.759   5.084  2.0372  0.0308  1.5844
 4845SOL     OW21533   2.766   1.795   5.712  0.4880  0.1513 -0.6573
 4845SOL    HW121534   2.823   1.714   5.724  2.1613  1.5061  0.9637
 4845SOL    HW221535   2.777   1.830   5.619 -0.5359 -1.6431 -1.4900
 4846SOL     OW21536   5.642   6.816   5.161  0.0653 -0.4942  0.3920
 4846SOL    HW121537   5.580   6.847   5.089  0.9418  2.5011  0.8678
 4846SOL    HW221538   5.735   6.808   5.123  0.1699 -0.8439  0.7151
 4847SOL     OW21539   1.864   0.124   0.805  0.1655  0.3337  0.3410
 4847SOL    HW121540   1.831   0.219   0.809  2.2936  1.1524 -0.8820
 4847SOL    HW221541   1.816   0.070   0.874 -4.1757  1.2951 -1.7315
 4848SOL     OW21542   6.356   4.860   5.870 -0.1376  0.2165  0.1168
 4848SOL    HW121543   6.406   4.777   5.892 -0.7282 -0.1605  0.0367
 4848SOL    HW221544   6.360   4.877   5.772 -0.6241 -0.1116  0.0380
 4849SOL     OW21545   5.714   2.494   4.499 -0.0466 -0.3755 -0.5895
 4849SOL    HW121546   5.790   2.452   4.549  1.0569  1.0409 -1.0449
 4849SOL    HW221547   5.728   2.485   4.401 -0.4456 -0.0751 -0.6797
 4850SOL     OW21548   3.140   6.240   6.707  0.1523 -0.3766  0.0912
 4850SOL    HW121549   3.110   6.193   6.790 -2.2592  3.2346  1.3803
 4850SOL    HW221550   3.072   6.228   6.635  0.5638 -0.6249 -0.2608
 4851SOL     OW21551   4.615   0.213   1.236 -0.2340 -0.1554 -0.2226
 4851SOL    HW121552   4.585   0.218   1.141  0.6223 -1.5004 -0.5784
 4851SOL    HW221553   4.566   0.140   1.283  0.1879 -0.2677  0.0500
 4852SOL     OW21554   6.993   0.110   4.961 -0.2559  0.2015 -0.5251
 4852SOL    HW121555   7.080   0.109   5.010 -0.2768 -1.3691 -0.4949
 4852SOL    HW221556   6.938   0.188   4.992  0.4678  0.2566  0.6457
 4853SOL     OW21557   4.254   6.622   4.652  0.1232  0.2651 -0.5458
 4853SOL    HW121558   4.290   6.631   4.559 -1.0856 -0.2313 -1.0717
 4853SOL    HW221559   4.316   6.667   4.716  2.2089 -1.4876 -1.2948
 4854SOL     OW21560   2.364   5.170   2.891  0.1517  0.0422 -0.4679
 4854SOL    HW121561   2.306   5.208   2.819 -0.6605  0.7692  0.5649
 4854SOL    HW221562   2.445   5.129   2.849 -0.0973  0.8366 -1.7710
 4855SOL     OW21563   3.381   1.331   6.083 -0.4341 -0.5660 -0.1156
 4855SOL    HW121564   3.311   1.401   6.096  1.5151  1.4612 -0.0597
 4855SOL    HW221565   3.457   1.370   6.031  0.9027 -2.5351  0.2895
 4856SOL     OW21566   6.443   6.249   5.976 -0.0384 -0.5146 -0.7333
 4856SOL    HW121567   6.530   6.293   5.957  0.3140 -1.8281 -2.2720
 4856SOL    HW221568   6.368   6.308   5.946  0.3383  0.1881 -0.3021
 4857SOL     OW21569   2.866   3.849   2.295  0.2557  0.0257 -0.0130
 4857SOL    HW121570   2.804   3.776   2.266  1.2718 -0.8040 -0.1225
 4857SOL    HW221571   2.829   3.937   2.266 -1.2757 -0.3943  0.6403
 4858SOL     OW21572   6.382   4.903   3.751  0.4338  0.1079  0.0619
 4858SOL    HW121573   6.431   4.930   3.668  2.0255 -2.0002  0.2664
 4858SOL    HW221574   6.296   4.954   3.758  0.9555  1.3237 -2.1324
 4859SOL     OW21575   5.403   2.092   2.970  0.6779  0.4905  0.4317
 4859SOL    HW121576   5.362   2.174   2.930  0.6960 -0.4224 -1.5329
 4859SOL    HW221577   5.502   2.094   2.957  0.4962 -0.7093 -1.3434
 4860SOL     OW21578   4.726   6.128   5.730 -0.0899  0.0944  0.7090
 4860SOL    HW121579   4.718   6.204   5.795  0.6902  1.1527 -0.4169
 4860SOL    HW221580   4.817   6.129   5.689  0.2474 -2.0374  1.3800
 4861SOL     OW21581   1.975   2.541   3.836  0.3642  0.2374 -0.5022
 4861SOL    HW121582   1.930   2.471   3.892  2.1843 -0.8929 -0.4066
 4861SOL    HW221583   1.931   2.546   3.747 -0.6948 -0.0253 -0.0000
 4862SOL     OW21584   4.617   6.657   6.822  1.1353 -0.6754  0.3655
 4862SOL    HW121585   4.685   6.728   6.801 -0.1781  0.3242 -0.5822
 4862SOL    HW221586   4.601   6.601   6.741  0.8588 -0.9388  0.6000
 4863SOL     OW21587   6.403   5.194   6.867 -0.5448  0.4664  0.7102
 4863SOL    HW121588   6.414   5.096   6.848  0.3606  0.8122 -0.6266
 4863SOL    HW221589   6.488   5.229   6.908 -1.1344  0.5389  1.8787
 4864SOL     OW21590   3.452   4.371   7.320 -0.0419  0.5381 -0.1877
 4864SOL    HW121591   3.462   4.397   7.224  0.9943  1.3412  0.1259
 4864SOL    HW221592   3.520   4.301   7.343 -1.0573 -0.5044 -0.3374
 4865SOL     OW21593   3.799   2.084   0.833  0.0473  0.0846 -0.7890
 4865SOL    HW121594   3.763   2.011   0.891  1.2402  0.8374  0.9661
 4865SOL    HW221595   3.826   2.047   0.745 -2.2648 -1.0106 -1.0749
 4866SOL     OW21596   2.387   5.193   0.434 -0.2049  0.4468  0.4688
 4866SOL    HW121597   2.314   5.134   0.399  0.1797  1.1064 -1.5427
 4866SOL    HW221598   2.461   5.136   0.471 -0.9640 -0.2589  0.9257
 4867SOL     OW21599   2.507   7.357   5.981 -0.2176 -0.3442  0.3104
 4867SOL    HW121600   2.501   7.448   5.940  0.8613 -0.0937  0.6828
 4867SOL    HW221601   2.441   7.351   6.057 -0.0663  0.2307  0.4886
 4868SOL     OW21602   4.170   1.318   1.870  0.1968  0.2808  0.3115
 4868SOL    HW121603   4.105   1.266   1.814 -0.1482 -0.4365  1.3474
 4868SOL    HW221604   4.237   1.363   1.811  1.3506 -2.4928 -0.5600
 4869SOL     OW21605   0.375   6.509   1.431 -0.7630  0.0607 -0.2165
 4869SOL    HW121606   0.351   6.415   1.410 -0.8105  0.0071  0.0734
 4869SOL    HW221607   0.369   6.524   1.530 -0.1791  0.2053 -0.1978
 4870SOL     OW21608   3.963   5.921   6.364 -0.4303 -0.5917 -0.0941
 4870SOL    HW121609   3.884   5.953   6.311 -2.2143 -1.4225  2.0108
 4870SOL    HW221610   4.019   5.861   6.306 -1.2207  0.1473 -1.6581
 4871SOL     OW21611   0.685   7.109   7.238  0.8298 -0.4345 -0.6492
 4871SOL    HW121612   0.770   7.058   7.221  1.1835 -0.0341 -0.1084
 4871SOL    HW221613   0.694   7.161   7.323  1.1762  1.9476 -2.0961
 4872SOL     OW21614   6.770   4.747   6.868  0.2836  0.2494  0.8152
 4872SOL    HW121615   6.805   4.839   6.850  1.1011  0.1524  1.8410
 4872SOL    HW221616   6.753   4.736   6.966 -0.6791 -0.3978  0.5838
 4873SOL     OW21617   2.570   1.551   0.463 -0.0679 -0.1001  0.2623
 4873SOL    HW121618   2.554   1.461   0.504  0.4219 -0.1867  0.2730
 4873SOL    HW221619   2.626   1.606   0.526  0.8051 -0.2814 -0.3461
 4874SOL     OW21620   7.248   0.401   2.936 -0.8362 -0.3730  0.0522
 4874SOL    HW121621   7.213   0.308   2.944 -0.4052 -0.4899  0.6089
 4874SOL    HW221622   7.348   0.399   2.927 -0.8217  0.0336  0.0894
 4875SOL     OW21623   1.892   5.463   0.538 -0.2833 -0.4729 -0.0552
 4875SOL    HW121624   1.980   5.503   0.559 -0.9208  1.1875 -0.4919
 4875SOL    HW221625   1.822   5.502   0.598 -0.8213 -1.3686 -0.0828
 4876SOL     OW21626   2.238   5.074   1.076  0.2064 -0.1467  0.1909
 4876SOL    HW121627   2.181   4.995   1.100 -1.3016  0.7258 -0.4539
 4876SOL    HW221628   2.264   5.068   0.980  0.9484 -0.3842  0.4062
 4877SOL     OW21629   3.665   2.068   1.288 -0.0138  0.3291 -0.3092
 4877SOL    HW121630   3.698   2.127   1.214  0.3343 -2.8998 -2.8592
 4877SOL    HW221631   3.742   2.040   1.346  0.5722 -1.1238 -1.7463
 4878SOL     OW21632   3.670   1.664   6.531  0.5605  0.1262  0.1512
 4878SOL    HW121633   3.749   1.629   6.481  1.2575  0.1295  1.2306
 4878SOL    HW221634   3.589   1.660   6.473  0.8012 -2.4250 -0.0425
 4879SOL     OW21635   4.995   1.641   6.262 -0.2344 -0.2459  0.5303
 4879SOL    HW121636   5.048   1.724   6.245 -1.8387  0.5912 -0.4332
 4879SOL    HW221637   5.058   1.563   6.268  1.1398  0.7717 -0.2625
 4880SOL     OW21638   4.620   4.226   5.519 -0.1258 -0.4936 -0.0576
 4880SOL    HW121639   4.668   4.306   5.556 -0.3174 -0.1968 -0.4454
 4880SOL    HW221640   4.661   4.200   5.432 -0.4868 -0.4068 -0.2568
 4881SOL     OW21641   6.007   5.032   7.194  0.0153 -0.2460 -0.0808
 4881SOL    HW121642   5.935   5.038   7.124 -0.3587  1.0653  0.4065
 4881SOL    HW221643   5.975   4.975   7.270 -1.0466  1.4840  0.7749
 4882SOL     OW21644   4.734   6.558   5.181 -0.4248  0.3482 -0.1719
 4882SOL    HW121645   4.715   6.650   5.145  3.1429  1.5487  0.7808
 4882SOL    HW221646   4.706   6.490   5.113 -0.1247  2.2820 -2.3171
 4883SOL     OW21647   3.752   0.845   1.951 -0.4512 -0.3141 -0.3621
 4883SOL    HW121648   3.725   0.870   1.858 -0.7738  2.4167  0.4141
 4883SOL    HW221649   3.713   0.912   2.015  0.9977 -1.3170  1.5902
 4884SOL     OW21650   0.615   7.341   1.506 -0.1582  0.7098 -0.0842
 4884SOL    HW121651   0.667   7.392   1.575  0.2213  1.8539 -1.1839
 4884SOL    HW221652   0.676   7.313   1.432 -1.3268  3.4680 -2.1889
 4885SOL     OW21653   4.063   7.247   4.504 -0.4510 -0.3633  0.1000
 4885SOL    HW121654   4.127   7.225   4.431 -1.8376  1.1007 -1.5922
 4885SOL    HW221655   4.089   7.334   4.547  0.1792 -1.0637  1.1658
 4886SOL     OW21656   4.726   1.175   1.679 -0.1400  0.0803 -0.0038
 4886SOL    HW121657   4.728   1.261   1.629  0.2748  1.3242  2.1086
 4886SOL    HW221658   4.817   1.156   1.717 -0.6481 -0.4020  1.0061
 4887SOL     OW21659   6.087   3.752   6.352 -0.4026 -0.0286  0.3012
 4887SOL    HW121660   6.005   3.793   6.312 -0.5549 -0.6827 -0.0528
 4887SOL    HW221661   6.155   3.824   6.369 -1.0639  0.5197  0.6412
 4888SOL     OW21662   6.541   6.395   6.741  0.7543  0.3794 -0.2566
 4888SOL    HW121663   6.574   6.301   6.727 -0.8417 -0.5103  1.7407
 4888SOL    HW221664   6.482   6.398   6.822  2.0490  3.4236  0.6372
 4889SOL     OW21665   1.908   1.089   2.335 -0.3108 -0.2045  0.1224
 4889SOL    HW121666   1.967   1.073   2.414  0.6815 -0.0170 -0.5650
 4889SOL    HW221667   1.963   1.087   2.252 -1.1042  1.0969 -0.4473
 4890SOL     OW21668   4.207   5.217   5.181 -0.1250  0.0955 -0.3796
 4890SOL    HW121669   4.128   5.179   5.133 -0.5420  0.9518 -0.3896
 4890SOL    HW221670   4.240   5.152   5.249 -1.3797  0.0726  0.2240
 4891SOL     OW21671   3.631   3.177   0.821 -0.1672 -0.2292  0.7554
 4891SOL    HW121672   3.675   3.263   0.795 -0.5055  0.6536  2.9778
 4891SOL    HW221673   3.616   3.176   0.920 -0.5946 -2.6602  0.6952
 4892SOL     OW21674   0.704   6.684   7.275 -0.2178 -0.3817  0.5523
 4892SOL    HW121675   0.785   6.708   7.330  0.3227 -2.3424  0.6359
 4892SOL    HW221676   0.720   6.713   7.180  0.6530 -0.9031  0.5315
 4893SOL     OW21677   1.880   4.106   0.338 -0.1714 -0.3845  0.1408
 4893SOL    HW121678   1.962   4.107   0.396  0.1584  0.0561 -0.3291
 4893SOL    HW221679   1.895   4.165   0.259 -1.1488  0.1500  0.3418
 4894SOL     OW21680   3.981   5.537   3.871  0.6094  0.7362 -0.0003
 4894SOL    HW121681   4.061   5.484   3.897  0.5283  0.5247 -0.1852
 4894SOL    HW221682   4.005   5.597   3.794  0.7014  0.9737  0.2109
 4895SOL     OW21683   6.145   0.354   3.519  0.1900  0.7012  0.5233
 4895SOL    HW121684   6.197   0.269   3.526 -0.7294 -0.0091 -1.0112
 4895SOL    HW221685   6.077   0.358   3.592 -0.5693 -0.4523 -0.1140
 4896SOL     OW21686   1.135   4.576   3.917 -0.9098 -0.2516  0.0253
 4896SOL    HW121687   1.057   4.615   3.965 -0.5490 -0.2289  0.5895
 4896SOL    HW221688   1.159   4.634   3.839 -0.7991  0.2967  0.4642
 4897SOL     OW21689   7.184   3.082   2.552 -0.1938 -0.1111  0.2068
 4897SOL    HW121690   7.223   3.029   2.627 -0.0440 -1.1620 -0.5978
 4897SOL    HW221691   7.257   3.131   2.504 -0.0464 -0.8019 -0.2985
 4898SOL     OW21692   3.436   1.594   7.291 -0.0381  0.7616 -0.3806
 4898SOL    HW121693   3.484   1.572   7.206  0.2223 -2.1933  0.4937
 4898SOL    HW221694   3.392   1.683   7.281  1.4871  1.2977 -2.9618
 4899SOL     OW21695   5.140   5.822   2.968  0.0166 -0.4381 -0.1932
 4899SOL    HW121696   5.080   5.892   3.007  0.4277 -0.3370  0.2662
 4899SOL    HW221697   5.091   5.735   2.961 -0.5274 -0.0775 -0.8615
 4900SOL     OW21698   0.158   3.090   6.376  0.8443  0.2195 -0.4573
 4900SOL    HW121699   0.174   3.105   6.279  0.7301  0.2145 -0.4768
 4900SOL    HW221700   0.246   3.078   6.422  0.9094  0.4221 -0.5259
 4901SOL     OW21701   3.705   1.570   1.174  0.0741  0.1693  0.3005
 4901SOL    HW121702   3.627   1.592   1.233 -0.0842  3.3504 -1.0096
 4901SOL    HW221703   3.757   1.653   1.156  3.2347 -1.7365  0.3367
 4902SOL     OW21704   7.112   4.623   1.257 -0.3856  0.6220  0.2174
 4902SOL    HW121705   7.204   4.660   1.273 -0.1630  0.2798 -0.2507
 4902SOL    HW221706   7.111   4.525   1.279 -0.4158  0.4386 -0.5805
 4903SOL     OW21707   1.355   4.835   0.139 -0.1064  0.3058 -0.4222
 4903SOL    HW121708   1.345   4.801   0.046 -1.9824 -2.0866  0.5911
 4903SOL    HW221709   1.432   4.789   0.184 -1.4146 -1.2461  0.3076
 4904SOL     OW21710   5.140   6.580   1.566  0.4057  0.0952  0.5127
 4904SOL    HW121711   5.135   6.664   1.619  2.3076 -0.3981  1.5297
 4904SOL    HW221712   5.162   6.601   1.470  1.3390  0.7476  0.8614
 4905SOL     OW21713   1.263   6.130   6.010  0.0437  0.6974  0.2030
 4905SOL    HW121714   1.204   6.201   5.972 -1.2871 -1.6953 -2.2933
 4905SOL    HW221715   1.209   6.068   6.067  0.4500 -0.5940 -0.8065
 4906SOL     OW21716   1.003   0.056   2.609  0.4515 -0.3171 -0.0641
 4906SOL    HW121717   0.970   0.151   2.612 -0.1301 -0.4947 -0.7362
 4906SOL    HW221718   0.944   0.003   2.548 -0.6699 -1.6816  2.1453
 4907SOL     OW21719   6.012   6.372   1.886  0.3547 -0.6415  0.6504
 4907SOL    HW121720   6.096   6.403   1.931  1.3149  0.0033 -1.5323
 4907SOL    HW221721   6.029   6.359   1.789 -2.4248  0.8538 -0.0827
 4908SOL     OW21722   1.633   0.923   6.406  0.1171  0.6660  0.4675
 4908SOL    HW121723   1.575   0.995   6.368  0.0143 -0.0244 -0.6800
 4908SOL    HW221724   1.656   0.857   6.335  0.3704 -0.3402  1.4726
 4909SOL     OW21725   6.110   0.980   1.044  0.1080 -0.3225  0.1582
 4909SOL    HW121726   6.060   0.903   1.004  2.3289 -0.6138 -2.1659
 4909SOL    HW221727   6.152   0.951   1.130 -2.5957 -0.4304  1.4868
 4910SOL     OW21728   5.080   6.714   1.076  0.6065 -0.3533  0.1369
 4910SOL    HW121729   5.119   6.805   1.087  0.0442 -0.0493 -0.3920
 4910SOL    HW221730   5.102   6.659   1.157  5.2185 -1.3471 -1.6531
 4911SOL     OW21731   3.561   1.935   4.805  0.0421 -0.3656 -0.1170
 4911SOL    HW121732   3.619   2.009   4.771 -0.5930 -0.2224 -0.8945
 4911SOL    HW221733   3.553   1.942   4.905  0.3547  0.3442 -0.1421
 4912SOL     OW21734   6.180   1.258   2.369  0.1894 -0.1911 -0.0648
 4912SOL    HW121735   6.121   1.300   2.300 -0.9021 -1.4159  0.0960
 4912SOL    HW221736   6.163   1.160   2.372  0.4970 -0.2201  1.6554
 4913SOL     OW21737   1.120   2.195   2.890 -0.1245  0.3040 -0.1797
 4913SOL    HW121738   1.190   2.123   2.900 -0.4909  0.1122  1.0448
 4913SOL    HW221739   1.100   2.207   2.793  0.0371 -1.1729 -0.4188
 4914SOL     OW21740   5.186   4.938   2.980 -0.1254  0.0277 -0.1248
 4914SOL    HW121741   5.104   4.994   2.993 -0.2885 -0.6208  1.7623
 4914SOL    HW221742   5.212   4.939   2.884 -0.8129  2.3939 -0.3153
 4915SOL     OW21743   1.572   1.641   0.269 -0.1525 -0.1027 -0.0226
 4915SOL    HW121744   1.546   1.613   0.177 -1.4684 -0.4575  0.4400
 4915SOL    HW221745   1.496   1.623   0.332  0.2244  1.3693  0.8848
 4916SOL     OW21746   2.147   7.042   0.085 -0.1118  0.0359  0.1174
 4916SOL    HW121747   2.105   6.965   0.037  0.0155  0.7557 -1.1987
 4916SOL    HW221748   2.188   7.104   0.017  1.4444  0.2889  1.2647
 4917SOL     OW21749   6.388   5.718   0.903  0.8130 -0.2446  0.1961
 4917SOL    HW121750   6.467   5.668   0.939 -0.1195 -1.4309  0.6267
 4917SOL    HW221751   6.340   5.660   0.836 -0.1910  0.1261  0.5892
 4918SOL     OW21752   4.102   3.206   5.273  0.5716  0.3532  0.1558
 4918SOL    HW121753   4.061   3.267   5.205  0.7595  1.0680  0.6842
 4918SOL    HW221754   4.031   3.147   5.312 -0.5623  3.4899  3.1120
 4919SOL     OW21755   1.869   1.433   0.471  0.2870  0.1370 -0.1475
 4919SOL    HW121756   1.773   1.444   0.496  0.2583 -0.7622  0.1446
 4919SOL    HW221757   1.927   1.450   0.551  0.3921  0.9292 -0.3834
 4920SOL     OW21758   7.007   5.910   0.633 -0.2737 -0.3211 -0.3118
 4920SOL    HW121759   6.907   5.899   0.638 -0.1781 -1.3172 -0.4460
 4920SOL    HW221760   7.051   5.823   0.658  0.5499  0.0149 -0.5970
 4921SOL     OW21761   6.176   0.151   2.286 -0.7980 -0.2992  0.4710
 4921SOL    HW121762   6.230   0.067   2.289  0.0431  0.1876 -0.6515
 4921SOL    HW221763   6.204   0.206   2.207 -0.9189  1.2995  1.5018
 4922SOL     OW21764   6.835   0.528   5.764 -0.0949  0.1787  0.0406
 4922SOL    HW121765   6.908   0.586   5.728  0.2027  0.0303  0.4007
 4922SOL    HW221766   6.875   0.455   5.820 -0.5117  0.0284  0.1451
 4923SOL     OW21767   4.073   5.862   1.845  0.1659 -0.4345 -0.4307
 4923SOL    HW121768   3.999   5.813   1.798 -2.1879  1.8539  0.7321
 4923SOL    HW221769   4.060   5.855   1.944  0.5042  1.4059 -0.2262
 4924SOL     OW21770   7.034   0.788   1.687 -0.4886  0.4953 -0.5268
 4924SOL    HW121771   6.942   0.752   1.700  0.2126 -0.9648  0.4474
 4924SOL    HW221772   7.028   0.885   1.662 -2.3705 -0.2512 -3.1096
 4925SOL     OW21773   3.668   4.455   2.333 -0.3474  0.6411 -0.2380
 4925SOL    HW121774   3.745   4.400   2.365 -0.4025  0.9579  0.4573
 4925SOL    HW221775   3.702   4.534   2.282 -0.2401  0.4217 -0.5100
 4926SOL     OW21776   2.211   2.704   6.451  0.3308  0.7292  0.7109
 4926SOL    HW121777   2.206   2.745   6.360 -0.2992  2.5957  1.5687
 4926SOL    HW221778   2.302   2.718   6.490  0.4849  0.2557  0.5272
 4927SOL     OW21779   6.288   3.808   4.361  0.0024 -0.5130  0.6968
 4927SOL    HW121780   6.205   3.785   4.411  0.7020 -1.8283  1.2746
 4927SOL    HW221781   6.360   3.833   4.425 -0.2461  1.6996  0.1541
 4928SOL     OW21782   5.629   0.200   5.564  0.7102  0.2580 -0.6563
 4928SOL    HW121783   5.538   0.191   5.522  0.3406  1.9195 -0.2580
 4928SOL    HW221784   5.699   0.179   5.495  0.0787  1.7125 -1.7749
 4929SOL     OW21785   4.396   6.362   2.790 -0.9352 -0.5077 -0.2830
 4929SOL    HW121786   4.386   6.439   2.727  0.6591 -0.0733 -0.0157
 4929SOL    HW221787   4.327   6.370   2.863 -1.2526  0.2690 -0.6624
 4930SOL     OW21788   3.749   5.343   5.915  0.0384 -0.1075  0.3738
 4930SOL    HW121789   3.814   5.267   5.917 -0.2157 -0.3109  1.1196
 4930SOL    HW221790   3.660   5.312   5.949 -0.1119  0.4887  0.5332
 4931SOL     OW21791   1.444   0.963   6.962  0.3358 -0.0779 -0.1281
 4931SOL    HW121792   1.351   0.974   6.926  0.5585  0.5707 -0.4972
 4931SOL    HW221793   1.453   1.015   7.047  0.6742  0.7005 -0.6380
 4932SOL     OW21794   7.027   2.002   0.741  0.1806 -0.1008  0.5945
 4932SOL    HW121795   7.036   2.093   0.700  0.5810  0.2500  1.4461
 4932SOL    HW221796   7.113   1.951   0.728  0.4137  0.1219  1.2636
 4933SOL     OW21797   7.158   3.973   5.255 -0.7345 -0.0281 -0.2360
 4933SOL    HW121798   7.061   3.987   5.271 -0.8063 -1.9027  1.1122
 4933SOL    HW221799   7.210   4.002   5.336 -0.2371  0.2628 -0.6578
 4934SOL     OW21800   5.283   1.708   0.133 -0.5371  0.0207  0.3521
 4934SOL    HW121801   5.336   1.778   0.182 -0.7828 -0.8640  1.9028
 4934SOL    HW221802   5.326   1.619   0.145 -2.1460 -0.6422  1.2829
 4935SOL     OW21803   5.490   4.337   5.721  0.6050  0.7935  0.5659
 4935SOL    HW121804   5.574   4.390   5.735  0.4847  1.2094 -0.3105
 4935SOL    HW221805   5.469   4.332   5.624 -0.4806  0.8341  0.7919
 4936SOL     OW21806   0.803   7.127   5.266  0.4455 -0.0280 -0.5559
 4936SOL    HW121807   0.783   7.216   5.224  0.6438 -1.1439 -3.0915
 4936SOL    HW221808   0.735   7.060   5.236  0.7803 -0.9382  0.6795
 4937SOL     OW21809   1.004   2.829   4.709 -0.0349  0.9715  0.6363
 4937SOL    HW121810   0.990   2.894   4.634 -0.5468 -2.2270 -2.1346
 4937SOL    HW221811   1.084   2.772   4.689 -1.9224 -1.9078  1.0079
 4938SOL     OW21812   5.445   2.369   3.951  0.4876 -0.2311  0.0658
 4938SOL    HW121813   5.441   2.437   3.878  1.3738  0.6017  0.7820
 4938SOL    HW221814   5.436   2.277   3.912 -0.4237  0.2714 -0.9352
 4939SOL     OW21815   4.161   0.862   3.217  1.0860 -0.3904 -0.5191
 4939SOL    HW121816   4.241   0.804   3.205  1.6402  0.4287 -0.8160
 4939SOL    HW221817   4.180   0.934   3.284  1.1355  0.7402 -1.7215
 4940SOL     OW21818   5.534   1.860   1.046  0.5430  0.2405 -0.0032
 4940SOL    HW121819   5.533   1.830   0.950 -1.1872 -0.0010  0.0754
 4940SOL    HW221820   5.468   1.806   1.098 -2.2104  3.7222  0.2636
 4941SOL     OW21821   7.139   5.271   2.984  0.3411 -0.3297  0.5782
 4941SOL    HW121822   7.164   5.174   2.982  0.8412 -0.1882 -3.8120
 4941SOL    HW221823   7.222   5.326   2.980 -0.0758  0.2780  0.3320
 4942SOL     OW21824   0.285   6.734   5.581  0.4415  0.4496 -0.4455
 4942SOL    HW121825   0.257   6.695   5.493 -0.1923  0.8302 -0.4160
 4942SOL    HW221826   0.376   6.775   5.571  1.6268 -2.0237 -0.1735
 4943SOL     OW21827   7.313   0.336   5.820  0.7774  0.0231 -0.1039
 4943SOL    HW121828   7.397   0.391   5.819 -0.4612  1.9611 -0.2167
 4943SOL    HW221829   7.246   0.376   5.758 -1.3043  0.2469  2.1954
 4944SOL     OW21830   5.722   2.747   0.534 -0.7919  0.1532 -0.4276
 4944SOL    HW121831   5.807   2.793   0.560 -0.3286 -0.4237 -0.9171
 4944SOL    HW221832   5.661   2.812   0.490 -0.5719  0.5513 -0.1460
 4945SOL     OW21833   2.267   5.815   0.914 -0.0242 -0.4363  0.2728
 4945SOL    HW121834   2.348   5.764   0.885  0.7781  0.7979  0.3172
 4945SOL    HW221835   2.279   5.846   1.009 -0.2306  0.3883  0.0300
 4946SOL     OW21836   0.617   5.097   2.500 -0.9231 -0.2465  0.0526
 4946SOL    HW121837   0.601   5.188   2.462 -0.7867 -0.7609 -1.2735
 4946SOL    HW221838   0.546   5.034   2.468 -0.8211 -0.6930  0.6816
 4947SOL     OW21839   2.251   2.747   5.541 -0.1100 -0.0703 -0.1779
 4947SOL    HW121840   2.313   2.785   5.609  0.7108 -1.3547 -0.1960
 4947SOL    HW221841   2.168   2.714   5.586  0.2367 -0.5010  0.1494
 4948SOL     OW21842   5.997   2.691   6.716  0.0188 -0.2173  0.6219
 4948SOL    HW121843   6.066   2.721   6.782 -1.4222  0.0381  2.0449
 4948SOL    HW221844   5.912   2.742   6.730 -1.1601 -2.0360  0.3499
 4949SOL     OW21845   2.592   1.324   3.614  0.2868 -0.4794  0.1686
 4949SOL    HW121846   2.563   1.419   3.625 -1.2199 -1.0024  0.9240
 4949SOL    HW221847   2.619   1.287   3.703  0.5456 -0.8623 -0.0680
 4950SOL     OW21848   5.118   6.991   0.441 -0.2474 -0.3119 -0.0409
 4950SOL    HW121849   5.060   7.008   0.520 -0.2871 -0.3479 -0.0628
 4950SOL    HW221850   5.203   7.044   0.450 -0.6888  0.4781 -0.4651
 4951SOL     OW21851   0.365   5.682   4.791  0.2619  0.1929 -0.4630
 4951SOL    HW121852   0.279   5.729   4.811  0.5436  0.0417  1.1936
 4951SOL    HW221853   0.346   5.593   4.750 -0.2842  1.5717 -3.3644
 4952SOL     OW21854   5.111   0.380   3.043 -0.2158 -0.1806 -0.2271
 4952SOL    HW121855   5.106   0.303   2.978 -0.4507 -1.0821  0.8542
 4952SOL    HW221856   5.197   0.430   3.028 -0.3884 -0.2270 -1.4062
 4953SOL     OW21857   6.028   1.488   7.063  0.2134  0.4555 -0.0768
 4953SOL    HW121858   5.938   1.490   7.019 -0.5137 -0.4903  1.3297
 4953SOL    HW221859   6.017   1.478   7.162  1.8412  1.7390  0.2626
 4954SOL     OW21860   6.658   0.714   6.948  0.0054 -0.3486  0.0734
 4954SOL    HW121861   6.713   0.791   6.980  0.6753 -0.6981 -0.2148
 4954SOL    HW221862   6.692   0.629   6.989 -0.0853 -0.6123 -0.3918
 4955SOL     OW21863   2.127   4.023   5.120  0.1380  0.0243  0.5114
 4955SOL    HW121864   2.103   4.077   5.040  0.2932  0.5576  0.8197
 4955SOL    HW221865   2.110   4.077   5.203  0.5235 -0.3098  0.8134
 4956SOL     OW21866   5.110   6.714   6.513  0.5353  0.0885 -0.0749
 4956SOL    HW121867   5.120   6.685   6.608  3.9783 -0.7240 -0.6194
 4956SOL    HW221868   5.104   6.814   6.509 -1.6004  0.0394  1.0930
 4957SOL     OW21869   0.099   3.802   5.551 -0.0807 -0.1362  0.6389
 4957SOL    HW121870   0.026   3.744   5.589  1.5335 -2.0859  0.8364
 4957SOL    HW221871   0.109   3.784   5.454  1.7140 -1.6401  1.0770
 4958SOL     OW21872   6.052   7.262   3.611  0.2040  0.4108 -0.2975
 4958SOL    HW121873   6.012   7.352   3.630 -1.0694 -0.4044  0.9269
 4958SOL    HW221874   6.109   7.268   3.529  1.3409  2.6876  0.6153
 4959SOL     OW21875   5.298   4.882   3.232  0.3692  0.1981 -0.5357
 4959SOL    HW121876   5.276   4.874   3.135  0.7442 -2.9106 -0.4198
 4959SOL    HW221877   5.215   4.867   3.286  0.1614  1.9208 -0.3787
 4960SOL     OW21878   1.843   0.845   0.033  0.1399  0.4352 -1.0018
 4960SOL    HW121879   1.902   0.785  -0.021 -1.5290 -1.1881 -1.0893
 4960SOL    HW221880   1.760   0.866  -0.020 -1.4965 -1.1352  0.8452
 4961SOL     OW21881   4.999   7.187   0.805  0.0066 -0.1691  0.3126
 4961SOL    HW121882   5.095   7.162   0.804 -0.5161 -2.3146 -2.5119
 4961SOL    HW221883   4.983   7.264   0.742 -0.1581  0.0503  0.6211
 4962SOL     OW21884   6.420   7.272   7.135  0.5692  0.5776  0.4663
 4962SOL    HW121885   6.351   7.224   7.080  0.7169 -2.2530  2.5938
 4962SOL    HW221886   6.511   7.257   7.096  0.4914  0.0563  0.4785
 4963SOL     OW21887   6.316   1.238   1.936  1.1085 -0.2573 -0.6476
 4963SOL    HW121888   6.390   1.298   1.906  0.3396  0.7316 -0.5830
 4963SOL    HW221889   6.318   1.231   2.036 -0.7879  2.3219 -0.3636
 4964SOL     OW21890   6.726   1.013   2.425  0.1765  0.1194  0.4163
 4964SOL    HW121891   6.709   1.039   2.330  0.1170 -1.2555  0.0411
 4964SOL    HW221892   6.780   0.929   2.428  0.6609  0.4623  1.6032
 4965SOL     OW21893   2.607   3.342   6.474  0.1826  0.2562 -0.3336
 4965SOL    HW121894   2.517   3.344   6.431  0.2657 -2.0503 -0.6887
 4965SOL    HW221895   2.616   3.259   6.529  1.4403  1.3422  1.1522
 4966SOL     OW21896   1.345   2.951   2.594  0.2082  0.4251 -0.0449
 4966SOL    HW121897   1.297   2.868   2.621 -0.6665  0.4697 -1.4102
 4966SOL    HW221898   1.313   3.027   2.650 -0.3571  0.1941 -0.0461
 4967SOL     OW21899   1.791   3.701   4.330 -0.2316 -0.4133 -0.0447
 4967SOL    HW121900   1.877   3.660   4.301 -0.1770 -1.4490  1.4711
 4967SOL    HW221901   1.715   3.643   4.300 -0.2002 -1.2283  1.3833
 4968SOL     OW21902   3.383   1.161   0.697 -0.3291 -0.6121  0.0982
 4968SOL    HW121903   3.390   1.162   0.796 -0.7244  0.5150  0.1218
 4968SOL    HW221904   3.330   1.240   0.666  0.5491 -0.4640 -1.0693
 4969SOL     OW21905   7.265   2.011   0.241  0.1883  0.5269 -0.5994
 4969SOL    HW121906   7.317   2.083   0.285 -0.0508 -0.2352  0.9611
 4969SOL    HW221907   7.307   1.922   0.260 -0.9631  0.0179 -0.3549
 4970SOL     OW21908   5.043   6.675   3.701  0.0120  0.5328 -0.2874
 4970SOL    HW121909   5.010   6.756   3.749  0.2322 -0.0472  0.8668
 4970SOL    HW221910   5.090   6.703   3.617  0.9524  1.6648  0.5928
 4971SOL     OW21911   5.904   3.161   2.814 -0.3752  0.1851 -0.2824
 4971SOL    HW121912   5.888   3.080   2.758  0.8988 -0.1792 -0.1290
 4971SOL    HW221913   6.001   3.170   2.834 -0.7269  0.6619  1.3512
 4972SOL     OW21914   3.320   6.603   5.902  0.1452  0.3313  0.0391
 4972SOL    HW121915   3.361   6.512   5.899 -0.3700  0.0859  0.3113
 4972SOL    HW221916   3.358   6.659   5.829  0.6152 -0.0394 -0.0040
 4973SOL     OW21917   5.114   3.394   1.928 -0.4739  0.6860  0.3204
 4973SOL    HW121918   5.027   3.408   1.880  0.3905  1.5164 -1.0543
 4973SOL    HW221919   5.139   3.477   1.978 -0.1311  0.7029  0.1276
 4974SOL     OW21920   0.693   6.801   7.000 -0.2507 -0.2015  0.2453
 4974SOL    HW121921   0.747   6.879   7.030 -0.3508 -0.4603  1.1276
 4974SOL    HW221922   0.602   6.831   6.972  0.8054  0.4321 -2.6481
 4975SOL     OW21923   6.160   2.764   5.938  0.0064 -0.1784 -0.0663
 4975SOL    HW121924   6.165   2.843   5.877  1.9323 -0.6862 -0.6105
 4975SOL    HW221925   6.118   2.791   6.025  0.3124  1.3553 -0.3857
 4976SOL     OW21926   0.300   0.113   6.063 -0.1895  1.1607  0.4289
 4976SOL    HW121927   0.248   0.029   6.048  0.9075  0.3060  1.2849
 4976SOL    HW221928   0.254   0.169   6.131 -0.0578  0.4715  1.0884
 4977SOL     OW21929   3.172   4.746   1.223  0.8584  0.0480  0.5168
 4977SOL    HW121930   3.141   4.834   1.186  1.9599 -0.4899 -1.7687
 4977SOL    HW221931   3.256   4.760   1.275  0.8292  0.3996  0.4728
 4978SOL     OW21932   5.860   1.887   4.409  0.4930 -0.6891  0.1035
 4978SOL    HW121933   5.879   1.909   4.504 -0.9126 -1.0394  0.4713
 4978SOL    HW221934   5.841   1.789   4.400  1.1373 -0.7556 -0.6210
 4979SOL     OW21935   2.026   3.153   5.868 -0.3627  0.4244 -0.0263
 4979SOL    HW121936   1.975   3.103   5.798 -0.8381  1.1466 -0.2037
 4979SOL    HW221937   2.016   3.107   5.956 -3.6755  2.0629  0.5383
 4980SOL     OW21938   4.434   3.490   6.590 -0.0850 -0.1843 -0.0118
 4980SOL    HW121939   4.423   3.512   6.687  0.4838  1.3161 -0.2653
 4980SOL    HW221940   4.497   3.413   6.580  0.5068  0.1843  0.7890
 4981SOL     OW21941   6.748   3.641   2.704 -0.2587  0.2896  0.2649
 4981SOL    HW121942   6.826   3.700   2.683  0.1147  0.0033  0.8285
 4981SOL    HW221943   6.669   3.698   2.727  0.3510  0.5831  1.7184
 4982SOL     OW21944   7.214   5.438   3.289  0.2794  0.2152 -0.3483
 4982SOL    HW121945   7.134   5.378   3.290 -0.0010  0.5913 -0.2873
 4982SOL    HW221946   7.213   5.494   3.207  0.6715 -0.0359 -0.5237
 4983SOL     OW21947   2.965   6.784   0.991  0.0672 -0.0060 -0.0440
 4983SOL    HW121948   2.941   6.781   0.894 -1.4185 -0.5065  0.3336
 4983SOL    HW221949   2.884   6.804   1.045  0.6423 -0.9744  1.2035
 4984SOL     OW21950   6.857   4.322   4.266  0.0158  0.2604  0.4195
 4984SOL    HW121951   6.862   4.395   4.198  0.7577  1.7009  1.9982
 4984SOL    HW221952   6.943   4.270   4.265  0.3063  0.7419  0.7888
 4985SOL     OW21953   1.292   2.086   6.037  0.1648  0.1848  0.1250
 4985SOL    HW121954   1.384   2.124   6.034 -0.1955  1.0499 -0.4826
 4985SOL    HW221955   1.240   2.120   5.959 -0.4608 -0.8476  0.0813
 4986SOL     OW21956   3.659   2.937   5.257 -0.4538  0.1354 -0.5257
 4986SOL    HW121957   3.654   2.839   5.278  0.1178 -0.1056 -1.5202
 4986SOL    HW221958   3.603   2.987   5.323  0.3251 -0.7367  0.8190
 4987SOL     OW21959   3.804   6.235   1.403 -0.5145 -0.6679 -0.2233
 4987SOL    HW121960   3.863   6.258   1.325 -0.4605  0.5829  0.1790
 4987SOL    HW221961   3.859   6.236   1.487 -1.2022  1.0059  0.2207
 4988SOL     OW21962   2.414   6.734   4.819  0.0571  0.4076 -0.0193
 4988SOL    HW121963   2.342   6.778   4.765  1.1439 -0.3556 -2.1312
 4988SOL    HW221964   2.403   6.758   4.915 -2.0463  1.6200 -0.5412
 4989SOL     OW21965   3.259   2.587   1.721 -0.6360 -0.0632 -0.1197
 4989SOL    HW121966   3.332   2.656   1.715 -0.4840 -0.0436  1.5303
 4989SOL    HW221967   3.276   2.514   1.655  0.5670  0.2396 -0.1558
 4990SOL     OW21968   7.038   3.691   2.387  0.4949 -0.1247 -0.3076
 4990SOL    HW121969   7.024   3.709   2.290  2.6687  0.8011 -0.4812
 4990SOL    HW221970   6.979   3.751   2.441  0.0348  0.0906 -1.0447
 4991SOL     OW21971   5.429   3.101   2.570  0.1556 -0.3433 -0.0597
 4991SOL    HW121972   5.525   3.107   2.596  1.0226 -0.4150 -3.0864
 4991SOL    HW221973   5.385   3.190   2.582  1.2122  0.3046 -0.9567
 4992SOL     OW21974   1.036   6.741   7.293 -0.3985  0.6701 -0.4175
 4992SOL    HW121975   1.130   6.738   7.325 -0.4751 -0.4705 -0.2903
 4992SOL    HW221976   0.976   6.772   7.366 -0.2355  0.5408 -0.2296
 4993SOL     OW21977   7.149   5.864   4.283 -0.2268 -0.4919 -0.3944
 4993SOL    HW121978   7.177   5.848   4.378  2.3537  1.0515 -0.8614
 4993SOL    HW221979   7.166   5.781   4.229 -0.4513 -0.9301  0.2009
 4994SOL     OW21980   1.213   0.037   2.321 -0.4987 -0.5620  0.6863
 4994SOL    HW121981   1.307   0.071   2.319 -0.6369 -0.1778  0.6267
 4994SOL    HW221982   1.206  -0.040   2.383 -0.2364 -0.3008  1.0388
 4995SOL     OW21983   3.936   2.238   3.157 -0.6053  0.4285  0.5528
 4995SOL    HW121984   3.862   2.297   3.124 -0.3549  0.2241 -0.3834
 4995SOL    HW221985   3.898   2.149   3.183 -0.9106  0.8343  1.5097
 4996SOL     OW21986   6.847   5.702   2.521  0.3019  0.1281 -0.0956
 4996SOL    HW121987   6.856   5.608   2.488 -0.6335  0.1908 -0.5383
 4996SOL    HW221988   6.811   5.701   2.615  1.0906  0.0220  0.2120
 4997SOL     OW21989   0.085   6.839   5.716  0.5939  0.8201 -0.0232
 4997SOL    HW121990   0.139   6.799   5.641 -1.3223 -0.9893 -0.4944
 4997SOL    HW221991   0.028   6.913   5.680 -0.0923  0.1593 -0.3094
 4998SOL     OW21992   5.409   6.919   2.152 -0.5433  0.4720 -0.2820
 4998SOL    HW121993   5.447   6.909   2.244 -0.8941  0.3231 -0.1495
 4998SOL    HW221994   5.483   6.926   2.085 -0.2847  1.1846  0.0721
 4999SOL     OW21995   2.922   3.415   4.944  0.3310  0.7367  0.1308
 4999SOL    HW121996   3.004   3.360   4.959  0.1889  1.2989  3.5830
 4999SOL    HW221997   2.841   3.359   4.961  0.1258  1.3165  1.0857
 5000SOL     OW21998   0.913   2.371   3.596 -0.2291 -0.1826  0.0149
 5000SOL    HW121999   0.848   2.330   3.532 -0.2120  0.1630 -0.2250
 5000SOL    HW222000   0.896   2.470   3.602 -1.1188 -0.4041  1.5760
 5001SOL     OW22001   2.465   5.116   5.918  0.3393 -0.0894 -0.2986
 5001SOL    HW122002   2.472   5.016   5.912 -0.7321 -0.1586 -0.4746
 5001SOL    HW222003   2.433   5.143   6.009 -1.6789 -0.0504 -0.9903
 5002SOL     OW22004   1.690   2.577   1.487 -0.0744  0.0664 -0.4828
 5002SOL    HW122005   1.651   2.493   1.450 -1.4999 -0.3189  1.8149
 5002SOL    HW222006   1.642   2.656   1.450  1.4708 -0.0781 -2.8864
 5003SOL     OW22007   4.834   1.009   5.754  0.1916 -0.3642  0.4567
 5003SOL    HW122008   4.811   1.062   5.672  0.0258 -1.7959 -0.4463
 5003SOL    HW222009   4.786   0.921   5.751  0.9183 -0.8134  1.6474
 5004SOL     OW22010   7.219   2.994   0.606 -0.4434  0.4621  0.2062
 5004SOL    HW122011   7.220   3.085   0.649  0.6519  1.1417 -1.2124
 5004SOL    HW222012   7.249   3.002   0.511 -0.8981 -1.3163 -0.0962
 5005SOL     OW22013   4.717   0.043   4.370 -0.0489 -0.0133 -0.4468
 5005SOL    HW122014   4.801  -0.011   4.364  0.5416  0.8195  0.0985
 5005SOL    HW222015   4.724   0.122   4.309 -0.2545  0.2986 -0.0678
 5006SOL     OW22016   1.522   4.887   0.835 -0.7610 -0.3206 -0.4982
 5006SOL    HW122017   1.496   4.971   0.787  1.7889  0.8697  0.1242
 5006SOL    HW222018   1.531   4.907   0.933  0.8350 -1.0636 -0.4836
 5007SOL     OW22019   4.632   3.728   0.397 -0.1358  0.4571  0.1325
 5007SOL    HW122020   4.644   3.781   0.314 -1.7339  1.4659  0.5141
 5007SOL    HW222021   4.717   3.680   0.419  0.6841  1.1831 -1.3705
 5008SOL     OW22022   5.093   4.064   4.575 -0.0197 -0.5880  0.3499
 5008SOL    HW122023   5.172   4.041   4.519  0.4748  0.2788  0.6810
 5008SOL    HW222024   5.083   3.996   4.648  0.3960 -0.7160  0.2862
 5009SOL     OW22025   3.319   3.419   1.608  0.2253  0.3065  0.3564
 5009SOL    HW122026   3.237   3.461   1.646  0.2251 -0.2801  1.0026
 5009SOL    HW222027   3.385   3.400   1.681  0.6806  0.2002 -0.0748
 5010SOL     OW22028   3.816   2.083   4.683 -0.1540 -0.0303 -0.1998
 5010SOL    HW122029   3.811   1.985   4.664  0.2586  0.4570 -3.1570
 5010SOL    HW222030   3.901   2.104   4.733 -0.7782 -1.2863  1.4273
 5011SOL     OW22031   2.637   1.102   3.498  0.3590 -0.5932  0.7473
 5011SOL    HW122032   2.624   1.184   3.554 -1.1837 -0.9067  0.8829
 5011SOL    HW222033   2.602   1.023   3.548  2.9773 -1.5514  1.1399
 5012SOL     OW22034   1.939   3.643   1.006 -0.5313 -0.3018  0.0610
 5012SOL    HW122035   1.952   3.708   0.931 -0.2406 -0.5585 -0.1112
 5012SOL    HW222036   1.843   3.614   1.009 -0.8336  0.7158  0.6139
 5013SOL     OW22037   7.103   6.657   6.969 -0.3183  0.7269  0.2682
 5013SOL    HW122038   7.188   6.609   6.995  0.0680 -0.3716 -2.8457
 5013SOL    HW222039   7.032   6.635   7.035  0.7840 -1.4835  0.7883
 5014SOL     OW22040   7.079   4.186   1.992  0.2834 -0.6951  0.3092
 5014SOL    HW122041   7.087   4.122   2.069  1.6533 -2.2270 -1.0514
 5014SOL    HW222042   7.147   4.258   2.002  0.6697 -1.0671  0.3761
 5015SOL     OW22043   0.083   3.965   4.682 -0.1414 -0.4430 -0.6734
 5015SOL    HW122044   0.045   4.051   4.716  1.8014  0.4321 -0.6618
 5015SOL    HW222045   0.027   3.889   4.715 -1.1178  0.7236  0.4221
 5016SOL     OW22046   1.335   1.603   3.093  0.2343  0.8181  0.1463
 5016SOL    HW122047   1.265   1.531   3.098  1.6577 -0.4927  1.7111
 5016SOL    HW222048   1.367   1.612   2.999 -1.2186  0.6506 -0.3822
 5017SOL     OW22049   7.199   1.873   1.811  0.0439  0.2372 -0.3637
 5017SOL    HW122050   7.142   1.890   1.892  2.0568  0.3369  1.0789
 5017SOL    HW222051   7.220   1.959   1.766 -1.4620  0.1384 -1.2765
 5018SOL     OW22052   5.500   0.218   5.795  0.3751 -0.1338 -0.2428
 5018SOL    HW122053   5.552   0.208   5.710  0.7841  0.1173 -0.0185
 5018SOL    HW222054   5.486   0.127   5.836  0.9445 -0.1653 -0.1145
 5019SOL     OW22055   4.050   2.246   6.289 -0.2972 -0.0457  0.1579
 5019SOL    HW122056   4.036   2.339   6.256  0.0430  0.6872  2.0627
 5019SOL    HW222057   4.142   2.236   6.326 -1.0052 -0.5734  1.8013
 5020SOL     OW22058   3.478   0.260   1.213 -0.3091  0.1812  0.0052
 5020SOL    HW122059   3.397   0.201   1.206  0.3397 -0.5128 -1.7527
 5020SOL    HW222060   3.523   0.244   1.301 -0.1476 -1.9727 -0.4461
 5021SOL     OW22061   2.575   5.424   5.569 -0.1058  0.2530 -0.3965
 5021SOL    HW122062   2.544   5.336   5.604  0.0231  1.1365  2.0519
 5021SOL    HW222063   2.626   5.472   5.641 -1.0870  2.7642 -1.3334
 5022SOL     OW22064   1.262   4.891   5.257  0.3507 -0.3017  0.4223
 5022SOL    HW122065   1.330   4.891   5.330 -0.5298  1.3825  1.2872
 5022SOL    HW222066   1.304   4.921   5.171  0.7199  0.6758  0.9389
 5023SOL     OW22067   2.919   7.269   6.939  0.3666  0.0939 -0.9248
 5023SOL    HW122068   3.011   7.232   6.950 -0.0924 -1.2859 -1.6815
 5023SOL    HW222069   2.923   7.369   6.944  2.0604  0.1030 -1.9608
 5024SOL     OW22070   3.882   2.900   2.911  0.5011 -0.3124 -0.4827
 5024SOL    HW122071   3.830   2.815   2.923  0.1541 -0.2092 -1.2306
 5024SOL    HW222072   3.962   2.882   2.854  0.2494 -0.0615 -0.9091
 5025SOL     OW22073   7.138   4.605   7.009 -0.3175 -0.0378  0.0767
 5025SOL    HW122074   7.095   4.687   7.048 -2.4086 -1.3706  0.6645
 5025SOL    HW222075   7.229   4.594   7.048 -0.3174  1.5920  0.5785
 5026SOL     OW22076   2.632   5.078   5.279  0.2170  0.6033 -0.2308
 5026SOL    HW122077   2.657   5.173   5.299  0.7419  0.4056  0.0464
 5026SOL    HW222078   2.573   5.076   5.199 -0.0500  1.1968 -0.0578
 5027SOL     OW22079   5.145   4.827   6.752  0.0467 -0.0523  0.2293
 5027SOL    HW122080   5.197   4.900   6.706 -2.9376  1.1734 -1.3177
 5027SOL    HW222081   5.108   4.764   6.684 -0.1324 -1.1718  1.3432
 5028SOL     OW22082   4.757   4.883   1.207  0.1979  0.8820 -0.4011
 5028SOL    HW122083   4.856   4.889   1.200  0.2951 -1.5637 -1.7048
 5028SOL    HW222084   4.715   4.963   1.164  1.5612  1.5147 -0.5788
 5029SOL     OW22085   0.092   1.390   1.062 -0.1156  0.5159  0.1355
 5029SOL    HW122086   0.017   1.456   1.052  0.6712  1.7023  1.8286
 5029SOL    HW222087   0.166   1.414   1.000  0.1939  1.2565  0.7931
 5030SOL     OW22088   3.661   3.611   1.279 -0.5102  0.2221 -0.3094
 5030SOL    HW122089   3.621   3.539   1.336 -0.2399  0.5056  0.2367
 5030SOL    HW222090   3.595   3.686   1.269  0.5845  1.5609  2.1917
 5031SOL     OW22091   0.156   1.172   1.610  0.1737 -0.4797 -0.6535
 5031SOL    HW122092   0.156   1.094   1.548 -1.2511 -0.1320 -1.1052
 5031SOL    HW222093   0.224   1.238   1.581  1.7346 -1.7673  0.0144
 5032SOL     OW22094   4.144   1.386   5.610 -0.0941  0.1298 -0.2432
 5032SOL    HW122095   4.176   1.449   5.681 -0.1260 -0.0680 -0.0523
 5032SOL    HW222096   4.182   1.413   5.522 -0.2189  0.4986 -0.1857
 5033SOL     OW22097   1.129   4.206   6.346 -0.1592  0.2324  0.2134
 5033SOL    HW122098   1.186   4.288   6.356 -0.8560  0.5038  1.9887
 5033SOL    HW222099   1.183   4.134   6.302  1.2558  0.8004  0.9863
 5034SOL     OW22100   5.082   5.940   2.459  0.1590 -0.4494  0.1392
 5034SOL    HW122101   5.014   5.961   2.529 -0.2495  0.5786 -0.5412
 5034SOL    HW222102   5.067   5.999   2.380  1.2148 -0.9229 -0.4287
 5035SOL     OW22103   4.937   1.959   5.167  0.2157 -0.1903 -0.3935
 5035SOL    HW122104   4.941   1.938   5.265 -1.4591  1.6546  0.0954
 5035SOL    HW222105   5.024   1.999   5.139  0.8559 -1.0974  0.2368
 5036SOL     OW22106   1.700   0.873   7.135  0.3089 -0.3102 -0.4813
 5036SOL    HW122107   1.715   0.774   7.139 -0.2991 -0.4546 -1.4919
 5036SOL    HW222108   1.605   0.891   7.109 -1.4560  0.5585  5.7905
 5037SOL     OW22109   4.463   5.961   2.285  0.4757  0.3706 -0.2541
 5037SOL    HW122110   4.385   5.914   2.242  0.8676 -0.5532  0.0436
 5037SOL    HW222111   4.511   6.015   2.215  0.4568 -0.2435 -0.7441
 5038SOL     OW22112   2.578   4.068   6.293 -0.6562  0.5551 -0.1201
 5038SOL    HW122113   2.651   4.015   6.248 -0.7354  0.1435  0.2356
 5038SOL    HW222114   2.587   4.164   6.267  1.5158  0.9412  1.8616
 5039SOL     OW22115   1.932   4.197   3.059 -0.7909 -0.6283  0.2844
 5039SOL    HW122116   1.966   4.276   3.008 -1.3324 -0.0307  0.8504
 5039SOL    HW222117   1.968   4.199   3.152 -0.9198 -0.9704  0.3430
 5040SOL     OW22118   2.447   0.122   1.521 -0.3029  0.8473 -0.2213
 5040SOL    HW122119   2.429   0.214   1.486 -0.4583  1.3174  1.0720
 5040SOL    HW222120   2.475   0.128   1.617  0.5021 -0.3874 -0.3703
 5041SOL     OW22121   6.399   2.043   1.604  0.0203  0.4102 -0.2162
 5041SOL    HW122122   6.315   1.994   1.629 -0.6799  1.8833  0.3979
 5041SOL    HW222123   6.462   1.981   1.557  0.0158 -1.5815  2.3684
 5042SOL     OW22124   5.586   3.433   2.867  0.5255 -0.1156  0.1889
 5042SOL    HW122125   5.545   3.513   2.912 -0.8815 -1.5042  1.4438
 5042SOL    HW222126   5.519   3.360   2.862  1.8629 -1.3067 -0.7603
 5043SOL     OW22127   6.273   6.615   5.201  0.0854 -0.0907  0.2207
 5043SOL    HW122128   6.284   6.521   5.235  0.1001 -0.2241 -0.1456
 5043SOL    HW222129   6.297   6.618   5.104  1.8196  0.6529  0.6578
 5044SOL     OW22130   4.398   1.513   1.968 -0.0155 -0.6368  0.3098
 5044SOL    HW122131   4.449   1.598   1.977  0.1038 -0.8733  1.8674
 5044SOL    HW222132   4.460   1.435   1.979 -0.3359 -0.9269  0.0869
 5045SOL     OW22133   7.348   3.130   1.025  0.6105 -0.1700 -0.5750
 5045SOL    HW122134   7.398   3.067   1.084  0.8114  0.7260  0.2285
 5045SOL    HW222135   7.408   3.164   0.953  1.0763  0.6435  0.1870
 5046SOL     OW22136   5.071   0.028   2.858 -0.4334  0.0255  0.1465
 5046SOL    HW122137   5.044   0.074   2.774 -1.6780 -0.3770  0.3269
 5046SOL    HW222138   5.165   0.056   2.882 -1.0866  2.3304  0.1586
 5047SOL     OW22139   3.789   2.633   0.398  0.0398  0.2935 -0.0858
 5047SOL    HW122140   3.763   2.583   0.481  2.4714  0.1434  0.6075
 5047SOL    HW222141   3.731   2.714   0.390 -1.5097 -0.6894  0.7150
 5048SOL     OW22142   0.969   3.542   7.219 -0.4054  0.0681 -0.0021
 5048SOL    HW122143   0.898   3.526   7.151 -1.2226 -1.5451  1.2033
 5048SOL    HW222144   0.931   3.597   7.294 -0.7255 -1.6862  1.1580
 5049SOL     OW22145   5.668   6.646   3.809 -0.0930 -0.5757  0.8682
 5049SOL    HW122146   5.654   6.649   3.908  0.5477 -0.2609  0.9522
 5049SOL    HW222147   5.657   6.737   3.770 -2.0883 -1.0021  0.3942
 5050SOL     OW22148   4.061   4.677   3.757 -0.0666 -0.0569 -0.2327
 5050SOL    HW122149   4.060   4.579   3.736 -0.0272 -0.1142  0.0379
 5050SOL    HW222150   4.148   4.716   3.728  0.3885 -0.3347  0.7285
 5051SOL     OW22151   4.026   1.819   6.026  0.0315  0.4369 -0.0085
 5051SOL    HW122152   4.041   1.857   6.117 -0.1803  0.5641 -0.0272
 5051SOL    HW222153   4.044   1.890   5.957 -1.5164  0.8612  0.0002
 5052SOL     OW22154   2.395   3.017   6.576  0.1784 -0.4854  0.0424
 5052SOL    HW122155   2.334   3.078   6.627  0.4417  0.0742 -0.3081
 5052SOL    HW222156   2.368   2.922   6.593 -0.6701 -0.2527  0.0422
 5053SOL     OW22157   1.943   3.236   2.714  0.2465  0.4760  0.4224
 5053SOL    HW122158   1.968   3.331   2.696  0.0380  0.3675 -0.4822
 5053SOL    HW222159   1.855   3.216   2.671 -0.2868  0.2056  1.6157
 5054SOL     OW22160   3.418   3.965   6.089  0.0922  0.1317 -0.3831
 5054SOL    HW122161   3.500   4.008   6.053 -0.3707  0.8841 -0.5501
 5054SOL    HW222162   3.365   3.926   6.014 -0.6681  1.3464 -0.4990
 5055SOL     OW22163   6.848   4.316   6.707 -0.6784  0.0806 -0.4855
 5055SOL    HW122164   6.757   4.318   6.748 -0.7973  3.5805 -0.7464
 5055SOL    HW222165   6.888   4.408   6.712  2.9376 -1.4308 -0.1761
 5056SOL     OW22166   5.116   2.753   0.520  0.3015  0.1559 -0.0388
 5056SOL    HW122167   5.031   2.804   0.510 -0.0788 -0.6191 -0.8240
 5056SOL    HW222168   5.172   2.766   0.439 -0.4369 -1.8265 -0.8906
 5057SOL     OW22169   5.667   0.402   0.782  0.2405 -0.0867 -1.2844
 5057SOL    HW122170   5.680   0.305   0.802 -0.9148 -0.1336 -0.7329
 5057SOL    HW222171   5.642   0.414   0.686 -0.5110 -0.4078 -1.1271
 5058SOL     OW22172   4.615   6.304   2.910  0.5495 -0.1515 -0.6541
 5058SOL    HW122173   4.541   6.316   2.844 -0.2394 -0.9828  0.0686
 5058SOL    HW222174   4.578   6.271   2.997  1.2289  3.4003  1.0727
 5059SOL     OW22175   2.744   4.338   0.875 -0.5885  0.1711  0.2633
 5059SOL    HW122176   2.673   4.271   0.854  0.1218 -0.4532 -0.1945
 5059SOL    HW222177   2.808   4.342   0.798  0.1179  0.3984  0.8660
 5060SOL     OW22178   3.301   6.585   6.997  0.0443 -0.2706 -0.1271
 5060SOL    HW122179   3.265   6.505   6.949 -0.3747 -0.8450  1.1036
 5060SOL    HW222180   3.268   6.669   6.954 -1.1457 -0.7823 -0.2155
 5061SOL     OW22181   3.458   1.565   1.840  0.5622 -0.2137  0.1722
 5061SOL    HW122182   3.418   1.575   1.931 -1.7200 -2.2249 -0.5661
 5061SOL    HW222183   3.533   1.498   1.843  1.3442  0.6758  0.7963
 5062SOL     OW22184   4.247   7.062   5.206 -0.2995  0.5788 -0.0587
 5062SOL    HW122185   4.233   7.059   5.108 -1.3344  1.6421  0.0514
 5062SOL    HW222186   4.344   7.077   5.226 -0.7596  5.6315 -1.0205
 5063SOL     OW22187   6.977   2.497   4.454  0.6510 -0.1332 -0.0356
 5063SOL    HW122188   6.960   2.431   4.381 -0.0946 -0.2805  0.2654
 5063SOL    HW222189   6.985   2.449   4.541 -1.3915  0.2972  0.4101
 5064SOL     OW22190   4.263   3.811   2.593  0.1874  0.5305  0.2656
 5064SOL    HW122191   4.312   3.790   2.508  0.5225 -0.1433  0.6223
 5064SOL    HW222192   4.177   3.857   2.571  0.2232  0.2648 -0.4465
 5065SOL     OW22193   5.801   5.420   1.360  0.8555  0.5915 -0.7487
 5065SOL    HW122194   5.727   5.474   1.319 -1.2392 -0.9141  0.9307
 5065SOL    HW222195   5.796   5.326   1.327  1.2328  0.1783  0.3586
 5066SOL     OW22196   0.043   3.169   4.610  0.3353  0.0495  0.2476
 5066SOL    HW122197   0.029   3.255   4.561 -0.5760  0.3501  1.0078
 5066SOL    HW222198   0.033   3.092   4.547 -1.1720  0.4175  0.0208
 5067SOL     OW22199   4.744   3.087   3.783 -0.5767  0.5182 -0.0787
 5067SOL    HW122200   4.694   3.162   3.827 -0.4409  1.3881 -1.3444
 5067SOL    HW222201   4.681   3.033   3.728 -0.3557  0.9146 -0.7421
 5068SOL     OW22202   1.346   6.906   5.767 -0.2273 -0.2460  0.5471
 5068SOL    HW122203   1.335   6.953   5.855 -0.2939  1.0870 -0.1665
 5068SOL    HW222204   1.262   6.855   5.746 -1.7312  2.5606 -0.5613
 5069SOL     OW22205   0.841   6.877   5.670  0.0528 -0.8133 -0.1224
 5069SOL    HW122206   0.877   6.970   5.680 -0.2227 -0.9235  2.3685
 5069SOL    HW222207   0.818   6.860   5.575 -1.1654  2.1324 -0.4054
 5070SOL     OW22208   6.627   3.177   1.049 -0.2490  0.9622 -0.5559
 5070SOL    HW122209   6.709   3.173   0.994  0.2027 -1.1195  0.2130
 5070SOL    HW222210   6.546   3.169   0.990  0.1759  0.3398 -1.0526
 5071SOL     OW22211   6.317   3.187   4.860 -0.1789 -0.3318 -0.8093
 5071SOL    HW122212   6.291   3.091   4.867  1.7686 -0.7747  0.8497
 5071SOL    HW222213   6.416   3.194   4.852 -0.3030  1.5566 -0.9056
 5072SOL     OW22214   0.126   3.332   6.545 -0.6835  0.1903  0.2722
 5072SOL    HW122215   0.226   3.339   6.547 -0.7329  0.7220  1.2520
 5072SOL    HW222216   0.098   3.272   6.470  0.3168  1.1390 -0.8830
 5073SOL     OW22217   2.170   4.407   2.125  0.4208 -0.0769 -0.1062
 5073SOL    HW122218   2.143   4.311   2.119  1.1694 -0.2726 -0.3414
 5073SOL    HW222219   2.114   4.453   2.195  1.8635 -1.3029  1.8805
 5074SOL     OW22220   1.926   2.599   6.253  0.2697  0.7052 -0.1621
 5074SOL    HW122221   1.993   2.537   6.212  0.3352 -0.6395  1.8913
 5074SOL    HW222222   1.846   2.547   6.283  0.3507  1.5709  1.6608
 5075SOL     OW22223   0.403   1.193   2.415 -0.3827  0.2533  0.0109
 5075SOL    HW122224   0.329   1.245   2.373 -0.6955 -0.7743 -0.7408
 5075SOL    HW222225   0.453   1.144   2.343  1.9999  2.1526  0.3150
 5076SOL     OW22226   2.717   6.081   3.291 -0.1183  0.1269 -0.0641
 5076SOL    HW122227   2.748   6.061   3.198  0.9761 -0.8181  0.4933
 5076SOL    HW222228   2.714   6.180   3.305 -0.6654  0.2813 -1.2245
 5077SOL     OW22229   6.684   4.022   7.118 -0.0085 -0.5421  0.0372
 5077SOL    HW122230   6.630   4.010   7.201  0.6066  2.4394  0.9339
 5077SOL    HW222231   6.627   4.006   7.038 -2.3442  2.8568  0.9517
 5078SOL     OW22232   1.108   2.683   0.271 -0.1989 -0.4765  0.0690
 5078SOL    HW122233   1.071   2.616   0.207  0.7414  0.2389 -1.2528
 5078SOL    HW222234   1.081   2.775   0.242  1.5340 -0.0313 -0.1985
 5079SOL     OW22235   4.390   0.991   5.447 -0.1646 -0.4572 -0.2903
 5079SOL    HW122236   4.438   0.904   5.437 -0.1938 -0.3952 -0.9634
 5079SOL    HW222237   4.379   1.012   5.545 -0.4007 -1.3366 -0.1236
 5080SOL     OW22238   5.008   1.718   3.731  0.0839 -0.3321  0.0638
 5080SOL    HW122239   5.095   1.677   3.760 -0.9387 -1.2947  1.8442
 5080SOL    HW222240   5.026   1.803   3.682  1.9852  0.2468  1.7186
 5081SOL     OW22241   5.620   6.640   0.364  0.6721 -0.5533  0.1245
 5081SOL    HW122242   5.576   6.632   0.275  0.3666 -0.0365  0.2278
 5081SOL    HW222243   5.551   6.637   0.436  0.7100  1.1500  0.2448
 5082SOL     OW22244   1.387   5.408   7.143  0.3969  0.1949  0.1721
 5082SOL    HW122245   1.420   5.369   7.057  1.0514  0.7236  0.1813
 5082SOL    HW222246   1.332   5.340   7.191  0.6079 -0.3411 -0.3307
 5083SOL     OW22247   4.816   4.493   3.394 -0.1649  0.1194 -0.1067
 5083SOL    HW122248   4.905   4.470   3.433 -0.7660 -2.4982 -0.1740
 5083SOL    HW222249   4.744   4.440   3.440 -1.3125 -0.1394 -2.1165
 5084SOL     OW22250   4.332   2.474   4.903  0.2950  0.1194  0.5757
 5084SOL    HW122251   4.248   2.492   4.851  0.2862 -2.4476 -0.3654
 5084SOL    HW222252   4.391   2.555   4.900 -1.2809  1.2609 -0.4130
 5085SOL     OW22253   0.985   4.823   4.881  0.4614  0.4405 -0.0852
 5085SOL    HW122254   1.077   4.839   4.844  0.1700  2.2537 -0.0604
 5085SOL    HW222255   0.990   4.818   4.981  0.5158  0.7308 -0.0712
 5086SOL     OW22256   4.826   0.045   3.008 -0.5311 -0.5508 -0.0072
 5086SOL    HW122257   4.804  -0.043   3.049  0.1913 -0.2355  1.0927
 5086SOL    HW222258   4.920   0.043   2.973 -0.2098  0.0723  0.8231
 5087SOL     OW22259   0.510   2.185   6.205 -0.1859  0.4858 -0.8507
 5087SOL    HW122260   0.598   2.137   6.198 -0.3657 -0.0008  0.0824
 5087SOL    HW222261   0.517   2.274   6.161  0.9394  0.6728 -0.3077
 5088SOL     OW22262   3.792   2.501   0.630  0.3615  0.2009 -0.1822
 5088SOL    HW122263   3.693   2.492   0.626  0.2422  0.8527  1.0060
 5088SOL    HW222264   3.831   2.424   0.681  0.6198 -0.8772 -1.9726
 5089SOL     OW22265   5.299   2.835   1.210 -0.0882  0.3161  0.0366
 5089SOL    HW122266   5.378   2.805   1.265  1.3525 -0.3552 -2.3042
 5089SOL    HW222267   5.314   2.808   1.115 -3.0823  0.3901 -0.4839
 5090SOL     OW22268   3.590   5.144   6.826 -0.6988 -0.0861 -0.0860
 5090SOL    HW122269   3.637   5.226   6.794  0.8554 -0.2240  1.7237
 5090SOL    HW222270   3.534   5.166   6.906 -0.6351 -0.6904  0.1316
 5091SOL     OW22271   0.527   4.021   5.616 -0.0598 -0.2162 -0.2421
 5091SOL    HW122272   0.551   3.978   5.703  0.5113  0.5623 -0.0022
 5091SOL    HW222273   0.611   4.043   5.566 -0.2641  1.8328  0.2496
 5092SOL     OW22274   1.330   2.246   4.839 -0.2013 -0.0540  0.2840
 5092SOL    HW122275   1.350   2.339   4.807 -0.4665 -0.7843 -2.0865
 5092SOL    HW222276   1.243   2.215   4.800  0.6158 -1.8475 -0.1780
 5093SOL     OW22277   0.004   2.476   4.587  0.0022  0.2609 -1.0042
 5093SOL    HW122278   0.038   2.501   4.678  0.1070 -1.3612 -0.5955
 5093SOL    HW222279   0.081   2.460   4.526 -0.0684  1.6502 -1.4782
 5094SOL     OW22280   2.931   3.070   1.485 -0.3531 -0.4259 -0.2634
 5094SOL    HW122281   2.949   2.986   1.433 -0.9399 -1.7201  1.5815
 5094SOL    HW222282   2.838   3.068   1.521  0.0755  0.3932  0.9226
 5095SOL     OW22283   6.655   0.198   5.727  0.0418 -0.1763 -0.6261
 5095SOL    HW122284   6.688   0.279   5.679 -1.7459 -0.0225 -1.6533
 5095SOL    HW222285   6.558   0.184   5.705 -0.5726 -0.6437  2.2309
 5096SOL     OW22286   5.109   1.163   5.190  0.0466 -0.1185  0.5751
 5096SOL    HW122287   5.144   1.176   5.097  0.9358 -1.9332  0.6458
 5096SOL    HW222288   5.018   1.123   5.186 -0.0957  0.2110  0.4843
 5097SOL     OW22289   3.929   5.134   5.872 -0.1071 -0.6306 -0.3915
 5097SOL    HW122290   3.967   5.117   5.781  0.4741 -1.1465 -0.0552
 5097SOL    HW222291   4.003   5.130   5.940 -0.3129  1.0879 -0.0489
 5098SOL     OW22292   7.326   4.238   6.111  0.5126  0.0056  0.2760
 5098SOL    HW122293   7.350   4.282   6.025 -1.8986 -1.0632 -0.9835
 5098SOL    HW222294   7.407   4.192   6.149  2.0861  2.2023 -0.3382
 5099SOL     OW22295   5.107   2.302   1.494  0.4992  0.6213  0.5688
 5099SOL    HW122296   5.086   2.304   1.591  0.2259 -4.0936  0.7081
 5099SOL    HW222297   5.202   2.275   1.480 -0.1481 -1.2442 -0.4608
 5100SOL     OW22298   6.193   5.224   6.001 -0.2212 -0.2634 -0.0050
 5100SOL    HW122299   6.183   5.193   6.096 -0.3062  2.8069  1.0604
 5100SOL    HW222300   6.286   5.205   5.970  0.5516  0.8556  1.5459
 5101SOL     OW22301   2.273   3.393   4.496 -0.0539 -0.4643  0.1480
 5101SOL    HW122302   2.221   3.405   4.581  0.1946 -1.1089  0.3978
 5101SOL    HW222303   2.348   3.460   4.493 -0.7850  0.3419 -0.1280
 5102SOL     OW22304   1.365   3.212   6.084  0.4540 -0.2303  0.1794
 5102SOL    HW122305   1.281   3.229   6.033 -0.4408 -1.5723  1.1857
 5102SOL    HW222306   1.430   3.287   6.066 -0.5302  0.2779 -1.4280
 5103SOL     OW22307   0.162   7.328   0.423 -0.1411 -0.3069 -0.3329
 5103SOL    HW122308   0.066   7.302   0.415  0.2753 -2.0460  0.2236
 5103SOL    HW222309   0.215   7.252   0.461  1.1337  1.2966  1.1875
 5104SOL     OW22310   2.913   5.137   0.704 -0.3650  0.7408  0.0279
 5104SOL    HW122311   2.868   5.077   0.771 -2.1403  0.1476 -1.6365
 5104SOL    HW222312   2.844   5.177   0.644  1.1995  1.2051 -1.5003
 5105SOL     OW22313   5.809   5.290   1.812  0.3903  0.7555 -0.4449
 5105SOL    HW122314   5.818   5.386   1.784  0.2722  1.1657  0.8990
 5105SOL    HW222315   5.793   5.286   1.910 -0.5323 -0.6106 -0.6437
 5106SOL     OW22316   6.907   3.006   3.228 -0.0711  0.0553 -0.3358
 5106SOL    HW122317   6.906   2.921   3.175  0.6727 -0.1782  0.0280
 5106SOL    HW222318   6.820   3.015   3.277  0.2843 -1.0630  0.5226
 5107SOL     OW22319   2.773   1.650   7.056  0.3962  0.4796 -0.4822
 5107SOL    HW122320   2.778   1.558   7.094  0.2608  0.1587 -1.2163
 5107SOL    HW222321   2.679   1.684   7.062 -0.1907 -0.5982 -2.8306
 5108SOL     OW22322   4.196   1.449   4.658 -0.5966  0.2158  0.1330
 5108SOL    HW122323   4.234   1.541   4.658 -2.1705  0.9128 -1.5792
 5108SOL    HW222324   4.106   1.451   4.614 -0.2647 -2.2806 -0.7265
 5109SOL     OW22325   7.140   4.029   6.060  0.0798 -0.1161 -0.1357
 5109SOL    HW122326   7.209   4.101   6.057 -0.0195  0.0838  1.4674
 5109SOL    HW222327   7.058   4.064   6.104 -0.7518 -0.5954 -1.2845
 5110SOL     OW22328   1.719   2.869   5.312 -0.9125  0.0415  0.1348
 5110SOL    HW122329   1.700   2.853   5.408 -0.3729  0.1819  0.2696
 5110SOL    HW222330   1.680   2.956   5.283 -1.7528 -0.3712  0.0240
 5111SOL     OW22331   2.672   1.292   1.969 -0.1682 -0.2558 -0.4037
 5111SOL    HW122332   2.645   1.221   2.035  0.4119  0.1576  0.2869
 5111SOL    HW222333   2.666   1.255   1.876 -0.8660 -0.8839 -0.1118
 5112SOL     OW22334   5.064   3.137   3.701 -1.0068 -0.3434  0.2274
 5112SOL    HW122335   5.085   3.039   3.710 -4.4588 -1.0792  1.0597
 5112SOL    HW222336   4.968   3.148   3.678 -0.5503  2.8882 -0.3459
 5113SOL     OW22337   4.647   7.149   6.622 -0.0721  0.6191  0.0932
 5113SOL    HW122338   4.584   7.103   6.685 -0.4420  1.3199  0.2414
 5113SOL    HW222339   4.620   7.245   6.613 -0.7072  0.2614 -2.0103
 5114SOL     OW22340   3.123   2.248   7.038  0.5644  0.0294 -0.1742
 5114SOL    HW122341   3.216   2.278   7.059  1.0053 -1.5106  0.0870
 5114SOL    HW222342   3.065   2.329   7.024  1.9736  1.0070 -0.5621
 5115SOL     OW22343   2.912   6.976   0.265 -0.1399 -0.0532  0.3765
 5115SOL    HW122344   2.929   6.897   0.207 -1.8149 -0.6613  0.6879
 5115SOL    HW222345   2.911   6.948   0.361 -1.1613  0.2591  0.4627
 5116SOL     OW22346   1.331   0.304   6.078  0.1064 -0.2213  0.0186
 5116SOL    HW122347   1.273   0.372   6.034 -0.0205 -1.0376 -1.1081
 5116SOL    HW222348   1.308   0.213   6.042  1.2787 -0.6800  0.4189
 5117SOL     OW22349   4.211   7.140   2.323 -0.5108 -0.2451  0.6096
 5117SOL    HW122350   4.142   7.088   2.272 -0.2765 -2.3456  2.3544
 5117SOL    HW222351   4.166   7.191   2.397 -0.4226 -0.0829  0.5513
 5118SOL     OW22352   4.289   6.827   0.715 -0.0114  0.1230 -0.6314
 5118SOL    HW122353   4.216   6.875   0.764 -1.2200  0.5519 -2.7962
 5118SOL    HW222354   4.363   6.891   0.694  0.0385  0.1804 -0.2788
 5119SOL     OW22355   0.903   1.802   0.605 -0.0609 -0.2286 -0.3743
 5119SOL    HW122356   0.923   1.807   0.507  1.8409 -1.8269 -0.0994
 5119SOL    HW222357   0.857   1.716   0.625  0.5904 -0.4340  0.2840
 5120SOL     OW22358   0.479   3.243   3.708  0.4679  0.1050  0.2410
 5120SOL    HW122359   0.414   3.207   3.775 -0.3393  1.0376 -0.0247
 5120SOL    HW222360   0.569   3.203   3.724 -0.3616 -1.9007  0.0516
 5121SOL     OW22361   1.494   1.058   3.262 -0.4600  0.4143  0.1159
 5121SOL    HW122362   1.585   1.040   3.225 -0.8231 -0.9157 -0.1725
 5121SOL    HW222363   1.430   0.989   3.227 -1.0449 -0.2427  2.3786
 5122SOL     OW22364   5.456   2.973   1.956  0.4133  0.1903  0.0060
 5122SOL    HW122365   5.531   3.014   1.904 -0.4076 -0.0416 -1.3602
 5122SOL    HW222366   5.377   3.035   1.956 -0.0598 -0.4156 -0.1729
 5123SOL     OW22367   1.768   1.862   3.613 -0.1763  0.6385 -0.0718
 5123SOL    HW122368   1.737   1.855   3.518  0.5918  0.2926 -0.3036
 5123SOL    HW222369   1.697   1.825   3.674  0.2076 -1.1740 -0.6740
 5124SOL     OW22370   5.311   2.307   2.862  0.2574  0.2822 -0.4278
 5124SOL    HW122371   5.289   2.295   2.765 -0.1995  1.3070 -0.4624
 5124SOL    HW222372   5.229   2.294   2.917  0.7970 -1.6840 -0.0400
 5125SOL     OW22373   6.501   3.876   2.430  0.2179  0.2461 -0.4079
 5125SOL    HW122374   6.494   3.913   2.338 -1.3055 -1.4627 -1.0152
 5125SOL    HW222375   6.560   3.795   2.428  0.9173  0.7355  0.2892
 5126SOL     OW22376   4.215   3.434   6.265  0.1008  0.3707 -0.1129
 5126SOL    HW122377   4.226   3.511   6.328 -2.3294  0.8264 -0.1979
 5126SOL    HW222378   4.234   3.349   6.313  0.9415  0.8920  0.4945
 5127SOL     OW22379   2.431   5.802   3.603 -0.5013  0.5639  0.1507
 5127SOL    HW122380   2.407   5.799   3.700 -0.7690 -3.1095  0.0299
 5127SOL    HW222381   2.505   5.738   3.584 -0.2677  1.4309 -2.0579
 5128SOL     OW22382   0.923   0.927   4.054  0.0797 -0.3086  0.3603
 5128SOL    HW122383   0.839   0.980   4.067  1.1473  1.3057  0.8727
 5128SOL    HW222384   0.982   0.974   3.989 -0.1134 -2.3098 -1.3348
 5129SOL     OW22385   6.626   3.821   4.761 -0.0378 -0.2636 -0.3621
 5129SOL    HW122386   6.566   3.763   4.816 -0.1039  0.1279 -0.0179
 5129SOL    HW222387   6.714   3.775   4.748  0.0783 -0.2381  0.3179
 5130SOL     OW22388   5.858   6.758   1.433 -0.0490 -0.4300  0.4894
 5130SOL    HW122389   5.860   6.782   1.530  0.8366 -3.3520  1.2669
 5130SOL    HW222390   5.783   6.693   1.417  2.0827 -2.8501  0.0111
 5131SOL     OW22391   3.700   0.096   4.614 -0.6908  0.5005  0.0789
 5131SOL    HW122392   3.692   0.051   4.703 -0.6418 -0.8051 -0.5545
 5131SOL    HW222393   3.731   0.190   4.626  0.3956 -0.0123  1.3789
 5132SOL     OW22394   1.437   3.602   1.313 -0.6709  0.1908 -0.3541
 5132SOL    HW122395   1.340   3.623   1.320 -0.6382  0.3427 -0.3450
 5132SOL    HW222396   1.473   3.581   1.404 -0.6594  0.2969 -0.3340
 5133SOL     OW22397   4.911   5.845   5.766  0.4106 -0.4808 -0.3261
 5133SOL    HW122398   4.914   5.788   5.684 -1.2254  0.0189 -0.7501
 5133SOL    HW222399   4.961   5.930   5.749  1.0087 -0.8482 -0.4223
 5134SOL     OW22400   0.707   0.430   2.349  0.4689  0.0996  0.0530
 5134SOL    HW122401   0.658   0.465   2.269  2.3450  3.3190  0.2286
 5134SOL    HW222402   0.677   0.479   2.431  3.4064  1.6481  0.2609
 5135SOL     OW22403   2.950   3.825   4.519  0.0612 -0.1874 -0.4137
 5135SOL    HW122404   2.878   3.796   4.454  0.9391 -0.1619 -1.4097
 5135SOL    HW222405   2.933   3.781   4.607 -0.2646 -1.4960 -1.0980
 5136SOL     OW22406   0.998   0.910   2.552  0.3688  0.6483  0.7500
 5136SOL    HW122407   1.079   0.859   2.524  0.8337  1.6768  0.2127
 5136SOL    HW222408   1.024   0.982   2.617  0.0263  1.5755 -0.1380
 5137SOL     OW22409   5.278   3.183   1.908 -0.7347  0.5918  0.0274
 5137SOL    HW122410   5.213   3.258   1.919  0.9178  2.3208 -1.6840
 5137SOL    HW222411   5.370   3.220   1.892  0.2779 -1.8031  0.1334
 5138SOL     OW22412   0.984   3.941   6.077  0.8707 -0.3675  0.5195
 5138SOL    HW122413   0.895   3.977   6.104  0.5078 -0.8600 -0.0153
 5138SOL    HW222414   0.991   3.846   6.107  0.6932 -0.7375 -0.6109
 5139SOL     OW22415   5.430   4.647   4.580 -0.1451  0.0406 -0.1413
 5139SOL    HW122416   5.510   4.707   4.576 -1.3752  1.6488 -1.5667
 5139SOL    HW222417   5.369   4.668   4.504 -1.7894 -1.3640  0.7488
 5140SOL     OW22418   1.644   4.048   1.531 -0.2595  0.5354  0.0656
 5140SOL    HW122419   1.624   3.951   1.542  0.3351  0.5269  1.1682
 5140SOL    HW222420   1.735   4.059   1.491 -1.2571  0.6148 -2.2432
 5141SOL     OW22421   0.708   1.379   1.113 -0.3130  0.0498 -0.9380
 5141SOL    HW122422   0.728   1.284   1.136 -0.0044  0.5078  0.7783
 5141SOL    HW222423   0.762   1.440   1.172 -3.0405  1.2883  0.3792
 5142SOL     OW22424   5.586   1.818   3.546 -0.3911  0.5703 -0.3210
 5142SOL    HW122425   5.530   1.737   3.526  1.3436 -0.6826 -0.2522
 5142SOL    HW222426   5.656   1.793   3.612  0.0884  2.1806 -0.2253
 5143SOL     OW22427   3.435   6.526   1.419 -0.5304  0.3846 -0.3624
 5143SOL    HW122428   3.386   6.454   1.371 -0.2732  0.8176 -1.2785
 5143SOL    HW222429   3.370   6.581   1.472 -0.5558 -1.3934  1.5179
 5144SOL     OW22430   5.441   0.341   4.159 -0.0565  0.3729 -0.5005
 5144SOL    HW122431   5.341   0.352   4.158 -0.3505 -2.0665  0.4623
 5144SOL    HW222432   5.477   0.379   4.244 -0.2608  0.4331 -0.4393
 5145SOL     OW22433   0.511   5.624   0.021  0.2505 -0.6736 -0.0786
 5145SOL    HW122434   0.460   5.559  -0.036  1.1815  0.3647 -2.1151
 5145SOL    HW222435   0.524   5.710  -0.029  0.5132  0.4903  1.9490
 5146SOL     OW22436   7.233   0.949   3.350  0.9179 -0.4472  0.1890
 5146SOL    HW122437   7.167   1.025   3.345  0.4090 -0.7862  1.3784
 5146SOL    HW222438   7.202   0.884   3.419  1.0619 -2.0424 -1.2284
 5147SOL     OW22439   0.968   2.705   5.254  0.2575 -0.4263  0.6165
 5147SOL    HW122440   1.001   2.797   5.235 -0.7895  0.1192  1.3243
 5147SOL    HW222441   0.890   2.684   5.194 -1.5609  0.4098  2.6029
 5148SOL     OW22442   4.332   0.100   0.996 -0.1377 -0.1888  0.0173
 5148SOL    HW122443   4.377   0.026   1.046 -0.0753  0.7074  1.3372
 5148SOL    HW222444   4.250   0.065   0.951 -0.1152 -1.0580  0.6357
 5149SOL     OW22445   3.368   4.709   6.908 -0.1817 -0.1270 -0.5319
 5149SOL    HW122446   3.418   4.783   6.952  1.0822 -1.8667  1.0166
 5149SOL    HW222447   3.430   4.634   6.887 -1.4341 -0.7610 -2.1268
 5150SOL     OW22448   4.325   0.175   7.049  0.4525  0.7637 -0.3000
 5150SOL    HW122449   4.271   0.139   7.125  1.6974  1.5362  0.9873
 5150SOL    HW222450   4.394   0.108   7.022  0.8445  0.9935  0.1206
 5151SOL     OW22451   6.810   0.072   7.264  0.0191 -0.1657 -0.2612
 5151SOL    HW122452   6.831   0.116   7.177  0.0653  1.9669  0.7931
 5151SOL    HW222453   6.894   0.035   7.304  0.3178  0.5378 -0.2284
 5152SOL     OW22454   4.804   5.689   1.725  0.3047 -0.8577 -0.4491
 5152SOL    HW122455   4.737   5.700   1.799 -0.6139 -1.2353 -1.2264
 5152SOL    HW222456   4.764   5.637   1.650  0.8111  0.5971 -1.7660
 5153SOL     OW22457   2.351   4.048   5.619 -0.2621  0.1235 -0.5600
 5153SOL    HW122458   2.423   4.008   5.676  1.0265 -0.6308 -2.6490
 5153SOL    HW222459   2.355   4.147   5.625 -0.2351  0.0472  0.7779
 5154SOL     OW22460   2.024   0.930   3.537  0.7354 -0.8111 -0.0691
 5154SOL    HW122461   1.931   0.960   3.561  0.7012 -1.0248  0.0710
 5154SOL    HW222462   2.064   0.994   3.472  1.1069  0.1927  1.1283
 5155SOL     OW22463   3.626   2.296   3.262 -0.3579 -0.2793  0.0309
 5155SOL    HW122464   3.642   2.376   3.319 -4.0350  0.1057  0.6431
 5155SOL    HW222465   3.655   2.214   3.311  0.8849  0.4281  0.4987
 5156SOL     OW22466   5.194   0.193   1.870 -0.5853 -0.4903  0.0439
 5156SOL    HW122467   5.294   0.203   1.876 -0.5649 -0.9524  0.5485
 5156SOL    HW222468   5.152   0.283   1.859 -0.1358 -0.2616  0.1959
 5157SOL     OW22469   4.846   2.197   4.968 -0.3410 -0.1009 -0.0828
 5157SOL    HW122470   4.910   2.121   4.977  1.6880  1.7524  1.6187
 5157SOL    HW222471   4.873   2.256   4.893  1.6206  2.1527  2.2845
 5158SOL     OW22472   6.193   5.726   6.695 -0.0750 -0.0417 -0.6575
 5158SOL    HW122473   6.148   5.734   6.783  0.3218 -1.1366 -0.3473
 5158SOL    HW222474   6.236   5.813   6.671 -3.3447  1.4297 -1.5221
 5159SOL     OW22475   5.915   0.531   0.832 -0.6626  0.2316  0.4026
 5159SOL    HW122476   5.976   0.463   0.871 -1.1331 -0.4934 -0.1002
 5159SOL    HW222477   5.842   0.485   0.781 -1.3846  1.0931  0.6432
 5160SOL     OW22478   2.183   1.046   0.327 -0.0332 -0.3055  0.2513
 5160SOL    HW122479   2.243   1.041   0.247  1.3213  3.3566  0.9349
 5160SOL    HW222480   2.188   0.960   0.378  0.6555 -1.9318 -2.4764
 5161SOL     OW22481   6.157   5.753   1.053  0.7078  0.3278 -0.2906
 5161SOL    HW122482   6.230   5.772   0.987  0.3742  0.9869 -0.4638
 5161SOL    HW222483   6.081   5.708   1.005  0.3331  1.0974 -0.4136
 5162SOL     OW22484   4.726   1.204   3.131  0.0592 -0.4308  0.2974
 5162SOL    HW122485   4.806   1.145   3.135  1.5319  1.4198 -0.8572
 5162SOL    HW222486   4.654   1.161   3.077  1.4920 -0.7328 -1.3904
 5163SOL     OW22487   4.183   0.727   6.491 -0.0229 -0.2448  0.1922
 5163SOL    HW122488   4.161   0.786   6.569 -0.4964 -0.5791  0.3115
 5163SOL    HW222489   4.153   0.634   6.511  0.7278 -0.5250  0.0037
 5164SOL     OW22490   5.886   4.605   0.025 -0.0812  0.4994 -0.3948
 5164SOL    HW122491   5.858   4.527   0.081  2.0521 -1.8966 -2.6113
 5164SOL    HW222492   5.985   4.607   0.016 -0.0740  3.5404 -0.3436
 5165SOL     OW22493   3.315   0.429   0.759 -0.0488 -0.3043  0.1511
 5165SOL    HW122494   3.376   0.484   0.702 -0.2775  0.8303  1.0002
 5165SOL    HW222495   3.245   0.487   0.800 -0.8137 -1.3631  0.3763
 5166SOL     OW22496   2.681   6.808   0.382  0.1258 -0.3533 -0.8130
 5166SOL    HW122497   2.651   6.904   0.380 -1.2592 -0.8063 -3.1319
 5166SOL    HW222498   2.729   6.786   0.297 -1.8611 -2.4011 -1.4556
 5167SOL     OW22499   1.928   5.669   2.133  0.2410 -0.1464  0.5004
 5167SOL    HW122500   1.900   5.574   2.117 -0.1835 -0.4780  2.8963
 5167SOL    HW222501   1.865   5.711   2.199  1.8359  1.0321  1.3071
 5168SOL     OW22502   5.311   4.001   1.061  0.1333 -0.0975  0.1396
 5168SOL    HW122503   5.304   3.901   1.055  0.6912 -0.0485 -1.7986
 5168SOL    HW222504   5.386   4.032   1.002 -1.8181  1.6965 -1.4602
 5169SOL     OW22505   1.561   2.406   6.810 -0.2960 -0.6982 -0.6147
 5169SOL    HW122506   1.621   2.466   6.757  0.3320 -0.5270  0.2744
 5169SOL    HW222507   1.496   2.361   6.749 -0.7148  0.8122 -1.3252
 5170SOL     OW22508   0.979   5.073   5.930  0.0932 -0.8346 -0.0731
 5170SOL    HW122509   0.939   5.105   6.015 -0.9073 -0.4563 -0.6686
 5170SOL    HW222510   0.922   5.000   5.892  0.3038 -0.7271 -0.6074
 5171SOL     OW22511   5.623   7.218   3.649  0.3204 -0.4464 -0.0740
 5171SOL    HW122512   5.665   7.264   3.728 -0.3177  1.5711 -0.8695
 5171SOL    HW222513   5.694   7.197   3.581  0.8442 -2.0319  0.9304
 5172SOL     OW22514   3.018   0.236   2.206 -0.1428  0.0826 -0.2109
 5172SOL    HW122515   3.099   0.177   2.200  0.1892  0.4964  0.1406
 5172SOL    HW222516   3.010   0.291   2.123  0.9121  1.2794  0.4465
 5173SOL     OW22517   3.315   0.999   2.246 -0.1945  0.1258 -0.2983
 5173SOL    HW122518   3.298   0.911   2.290  0.5058 -0.8843 -1.9890
 5173SOL    HW222519   3.393   1.044   2.289  0.7502 -1.0412 -0.7741
 5174SOL     OW22520   3.996   1.655   3.428  0.9730 -0.2069 -0.1848
 5174SOL    HW122521   4.077   1.621   3.382 -1.0832 -1.3848 -3.1142
 5174SOL    HW222522   3.951   1.581   3.477  0.6575  0.0276 -0.1152
 5175SOL     OW22523   6.600   3.488   1.902  0.0690  0.0793  0.4987
 5175SOL    HW122524   6.555   3.529   1.981  0.7207  1.6689  0.0574
 5175SOL    HW222525   6.622   3.392   1.922 -2.0186 -0.2719  1.3153
 5176SOL     OW22526   4.760   0.299   5.102  0.1044 -0.2228 -0.2883
 5176SOL    HW122527   4.780   0.346   5.016 -1.1667 -0.2783 -0.6316
 5176SOL    HW222528   4.756   0.200   5.086  1.4690 -0.3624  0.1687
 5177SOL     OW22529   5.903   7.251   2.097  0.1709  0.0241 -0.2920
 5177SOL    HW122530   5.882   7.210   2.186  1.1852 -0.4483 -0.2628
 5177SOL    HW222531   5.845   7.211   2.027 -3.1002  2.8678  0.6786
 5178SOL     OW22532   5.910   0.911   2.209  0.2617  0.6364  0.4797
 5178SOL    HW122533   5.922   0.812   2.217 -1.0123  0.4280 -0.0431
 5178SOL    HW222534   5.891   0.934   2.114 -3.0364  0.9439  1.1325
 5179SOL     OW22535   6.494   5.840   6.619  0.2921 -0.4413 -0.3070
 5179SOL    HW122536   6.460   5.868   6.530 -0.4827 -1.3385 -0.3032
 5179SOL    HW222537   6.525   5.745   6.615  0.3237 -0.4656  0.3506
 5180SOL     OW22538   6.871   3.171   4.051 -0.6842 -0.7297  0.3825
 5180SOL    HW122539   6.777   3.204   4.039  0.1912  2.7630  2.4139
 5180SOL    HW222540   6.928   3.207   3.977 -0.3810 -0.4092  0.7712
 5181SOL     OW22541   0.988   7.277   0.765 -0.0005 -0.1361  0.0167
 5181SOL    HW122542   0.889   7.284   0.753 -0.0417 -1.8257 -0.7194
 5181SOL    HW222543   1.023   7.201   0.711  1.6555  0.1961  0.5913
 5182SOL     OW22544   0.200   3.943   0.422  0.6827  0.2734  0.5437
 5182SOL    HW122545   0.253   3.861   0.442  0.2724 -0.3028 -0.6442
 5182SOL    HW222546   0.171   3.941   0.326 -0.6330  1.0458  0.9054
 5183SOL     OW22547   4.790   1.063   5.492  0.2940 -0.0134 -0.0831
 5183SOL    HW122548   4.838   1.148   5.468 -1.4443  0.7987 -0.7814
 5183SOL    HW222549   4.847   0.985   5.468  1.3984  0.9335 -0.6076
 5184SOL     OW22550   3.757   7.296   4.046 -0.1986  0.1794 -0.5704
 5184SOL    HW122551   3.657   7.294   4.056 -0.2185  1.4918 -0.4557
 5184SOL    HW222552   3.799   7.324   4.133  0.3233 -1.1334 -0.3828
 5185SOL     OW22553   5.669   2.513   3.535  0.1530 -0.5450 -0.5202
 5185SOL    HW122554   5.571   2.512   3.513  0.0149  0.5916  0.0137
 5185SOL    HW222555   5.719   2.561   3.463  0.0191  0.9259  0.3542
 5186SOL     OW22556   5.397   6.008   2.337 -0.1721 -0.1468 -0.4241
 5186SOL    HW122557   5.487   6.033   2.373  0.3996 -1.7826 -0.6900
 5186SOL    HW222558   5.331   6.008   2.411  0.4425 -0.8291  0.1292
 5187SOL     OW22559   0.015   3.724   6.485  0.1325  0.3944 -0.0229
 5187SOL    HW122560   0.023   3.723   6.585  1.3606  0.1844 -0.1209
 5187SOL    HW222561  -0.017   3.635   6.453 -0.4681  0.5272  0.1878
 5188SOL     OW22562   3.383   4.610   0.061  0.0386 -0.1820 -0.2747
 5188SOL    HW122563   3.408   4.519   0.027  0.6540 -0.7925  1.6882
 5188SOL    HW222564   3.293   4.606   0.103 -0.1232  0.2236 -0.5809
 5189SOL     OW22565   5.910   1.708   2.014  1.1126 -0.1329  0.2080
 5189SOL    HW122566   5.922   1.757   1.928  0.5668 -1.5160 -0.6842
 5189SOL    HW222567   5.943   1.764   2.090  0.6497  1.5192 -0.7864
 5190SOL     OW22568   5.205   7.073   3.354 -0.3211 -0.2652  0.2887
 5190SOL    HW122569   5.135   7.039   3.416  0.2599  0.5678  1.4303
 5190SOL    HW222570   5.293   7.076   3.402  0.2047  0.0323 -0.6872
 5191SOL     OW22571   1.706   3.706   0.733 -0.1358 -0.2581  0.0032
 5191SOL    HW122572   1.790   3.735   0.687 -0.6994  0.3161 -0.6689
 5191SOL    HW222573   1.703   3.606   0.737 -0.0789 -0.3184 -1.2099
 5192SOL     OW22574   2.169   6.244   5.219 -1.1227  0.0823  0.2259
 5192SOL    HW122575   2.174   6.340   5.247 -0.1139  0.2145 -0.4045
 5192SOL    HW222576   2.185   6.185   5.299 -0.5168  0.4441  0.3739
 5193SOL     OW22577   6.151   5.295   6.894 -0.3690 -0.4868 -0.3355
 5193SOL    HW122578   6.232   5.249   6.932 -0.1840  2.5442  3.1886
 5193SOL    HW222579   6.180   5.359   6.823  0.3485  0.5113  0.8396
 5194SOL     OW22580   2.965   1.242   0.795  0.0496 -0.1659  0.2424
 5194SOL    HW122581   3.021   1.282   0.867  1.8737 -1.6694 -0.3208
 5194SOL    HW222582   2.925   1.156   0.828  0.0402 -0.3244 -0.1836
 5195SOL     OW22583   1.345   2.453   0.638  0.2420  0.6740 -0.5002
 5195SOL    HW122584   1.292   2.459   0.554  1.6578  0.0456 -1.4625
 5195SOL    HW222585   1.309   2.518   0.705 -1.5741  0.4072 -1.2028
 5196SOL     OW22586   3.733   2.531   3.389  0.3258  0.3818 -0.2169
 5196SOL    HW122587   3.695   2.553   3.479  0.1548  0.0405 -0.2083
 5196SOL    HW222588   3.734   2.614   3.333  0.7752  0.6832  0.2227
 5197SOL     OW22589   1.581   0.810   2.662 -0.2292 -0.0872 -1.2005
 5197SOL    HW122590   1.605   0.861   2.580 -0.4686  1.0574 -0.5601
 5197SOL    HW222591   1.508   0.745   2.641 -1.1612  1.0838 -1.5957
 5198SOL     OW22592   4.171   4.795   0.527 -0.1028  0.6055 -0.3508
 5198SOL    HW122593   4.259   4.753   0.501 -1.3888 -1.7307 -1.0782
 5198SOL    HW222594   4.136   4.750   0.609 -0.7819  1.3235 -0.2453
 5199SOL     OW22595   6.304   3.309   1.316  0.0946 -0.5078 -0.4965
 5199SOL    HW122596   6.362   3.370   1.371 -0.9136  0.9774 -1.0682
 5199SOL    HW222597   6.230   3.273   1.373  0.2305 -0.5846 -0.3666
 5200SOL     OW22598   5.559   6.578   5.644 -0.1741 -0.1043 -0.0886
 5200SOL    HW122599   5.529   6.649   5.707 -0.0654 -0.2152  0.0874
 5200SOL    HW222600   5.659   6.569   5.649  0.2418  2.3604 -2.8383
 5201SOL     OW22601   6.027   7.281   5.559  0.8047 -0.1532  0.4859
 5201SOL    HW122602   6.029   7.186   5.527  0.4447 -0.6456  1.8871
 5201SOL    HW222603   5.960   7.332   5.506 -1.0778 -1.4018  1.5929
 5202SOL     OW22604   2.264   3.658   3.584  0.1352 -0.0947  0.0448
 5202SOL    HW122605   2.355   3.619   3.568  0.5436  0.2558  1.4717
 5202SOL    HW222606   2.273   3.752   3.615 -0.8141  0.7683 -2.1927
 5203SOL     OW22607   4.630   3.613   2.677  0.2622  0.4445 -0.3114
 5203SOL    HW122608   4.683   3.583   2.598  1.3274  0.0357  0.5510
 5203SOL    HW222609   4.660   3.564   2.759 -2.0756 -0.4503  0.0342
 5204SOL     OW22610   2.841   0.167   7.018 -0.1886  0.5775 -0.0288
 5204SOL    HW122611   2.870   0.177   7.114 -1.6645  1.2317  0.3599
 5204SOL    HW222612   2.827   0.258   6.979 -1.2161  0.2740 -0.3618
 5205SOL     OW22613   0.476   1.015   3.324 -0.1485 -0.2372 -0.3802
 5205SOL    HW122614   0.454   1.041   3.230  0.4390  0.6194 -0.2839
 5205SOL    HW222615   0.573   0.994   3.331 -0.2457 -0.5720 -0.0217
 5206SOL     OW22616   3.491   1.308   6.650  0.7469 -0.6100  0.4428
 5206SOL    HW122617   3.440   1.367   6.587 -0.1520 -1.0810  0.7237
 5206SOL    HW222618   3.453   1.216   6.648 -0.1444 -0.3203  2.6332
 5207SOL     OW22619   2.134   6.413   1.660  0.4769  0.0623  0.2107
 5207SOL    HW122620   2.081   6.389   1.578  1.8749 -0.6731 -0.4984
 5207SOL    HW222621   2.133   6.512   1.672  0.6665  0.2191 -0.9945
 5208SOL     OW22622   5.137   5.749   6.782 -0.3054 -0.2231  0.4389
 5208SOL    HW122623   5.086   5.706   6.857 -0.7679 -3.6633 -1.7548
 5208SOL    HW222624   5.082   5.824   6.744 -1.6503 -0.8230  1.1415
 5209SOL     OW22625   5.748   7.321   3.284  0.0490 -0.1100  0.1717
 5209SOL    HW122626   5.789   7.268   3.357 -1.1645  0.6450  1.4191
 5209SOL    HW222627   5.650   7.330   3.300 -0.4277 -0.8402 -2.1148
 5210SOL     OW22628   3.541   4.737   2.510 -0.6741  0.0898 -0.1313
 5210SOL    HW122629   3.597   4.777   2.582 -2.2896  0.4535  0.9262
 5210SOL    HW222630   3.600   4.713   2.433  1.1284 -0.6490  1.4321
 5211SOL     OW22631   2.344   5.719   0.308 -0.1612 -0.0715  0.0334
 5211SOL    HW122632   2.381   5.763   0.389 -1.6796 -2.5535  2.1470
 5211SOL    HW222633   2.392   5.752   0.227  1.3879  2.4357  1.9305
 5212SOL     OW22634   1.516   2.238   5.857  0.2547  0.1189 -0.1038
 5212SOL    HW122635   1.574   2.206   5.931  1.0749  1.7905 -0.0118
 5212SOL    HW222636   1.454   2.308   5.891  0.6672  0.9293 -1.0010
 5213SOL     OW22637   3.190   5.493   6.524 -0.1382 -1.1523  0.1217
 5213SOL    HW122638   3.230   5.420   6.579  1.4503 -1.0620 -0.8823
 5213SOL    HW222639   3.242   5.577   6.536 -0.8235 -0.6708 -0.1847
 5214SOL     OW22640   5.503   4.650   1.973  0.2279  0.2835  0.2861
 5214SOL    HW122641   5.537   4.744   1.983 -0.5159  0.4761  1.1555
 5214SOL    HW222642   5.471   4.636   1.880  3.2040 -0.0922 -0.7487
 5215SOL     OW22643   2.212   2.374   5.311  0.3516 -0.7955  0.4164
 5215SOL    HW122644   2.268   2.409   5.386 -1.4086 -0.5531  1.6404
 5215SOL    HW222645   2.119   2.355   5.344 -0.3698 -0.9645 -1.6293
 5216SOL     OW22646   7.020   2.896   5.257  0.0914  0.3531  0.5598
 5216SOL    HW122647   7.113   2.890   5.294  0.7336 -0.1491 -1.0626
 5216SOL    HW222648   6.986   2.803   5.238  0.0772  0.6107 -0.7655
 5217SOL     OW22649   5.564   1.950   5.587  0.2148 -0.0621  0.4438
 5217SOL    HW122650   5.559   2.007   5.669 -1.3206  0.6558 -0.1222
 5217SOL    HW222651   5.513   1.865   5.601  0.0079  0.0315  0.2660
 5218SOL     OW22652   3.787   1.375   0.941 -0.3145  0.7649  0.3267
 5218SOL    HW122653   3.770   1.438   0.865 -1.5463  0.2215  0.1355
 5218SOL    HW222654   3.758   1.416   1.027  0.3897  1.0888  0.4120
 5219SOL     OW22655   3.079   5.853   0.938  0.1211 -0.4171 -0.1195
 5219SOL    HW122656   3.095   5.757   0.958  1.0185  0.0924  1.7279
 5219SOL    HW222657   3.070   5.904   1.024 -3.6263  0.6340 -1.0723
 5220SOL     OW22658   2.036   5.826   7.358  0.1563  0.0477 -0.2075
 5220SOL    HW122659   1.976   5.759   7.313 -1.1815  1.1893 -0.1720
 5220SOL    HW222660   2.129   5.817   7.322 -0.2907 -0.9548 -1.1506
 5221SOL     OW22661   1.750   1.264   2.978 -0.0825  0.2161 -0.2780
 5221SOL    HW122662   1.842   1.304   2.984  1.2164 -2.8407  1.5021
 5221SOL    HW222663   1.742   1.190   3.045 -3.4478 -0.4073 -1.2915
 5222SOL     OW22664   4.048   4.682   2.552  0.0751 -0.5014  0.7582
 5222SOL    HW122665   4.051   4.710   2.648  0.7421  0.7487  0.3911
 5222SOL    HW222666   3.966   4.721   2.509 -1.3246 -2.7262  1.2865
 5223SOL     OW22667   5.514   1.536   2.829  0.1389 -0.0540  0.4777
 5223SOL    HW122668   5.592   1.487   2.789 -0.4798  0.3239 -1.2023
 5223SOL    HW222669   5.525   1.634   2.814 -1.3038 -0.0941 -0.9473
 5224SOL     OW22670   0.274   2.913   0.837 -0.0318 -0.5017 -0.4122
 5224SOL    HW122671   0.341   2.843   0.864 -0.1373 -1.3998 -2.3736
 5224SOL    HW222672   0.188   2.868   0.812 -1.2786  0.6130  1.6762
 5225SOL     OW22673   1.544   3.243   2.104  0.7417 -0.9946 -0.0495
 5225SOL    HW122674   1.527   3.189   2.021 -2.8507 -0.7780  0.4412
 5225SOL    HW222675   1.479   3.216   2.175  1.1822  1.5332  1.3945
 5226SOL     OW22676   4.639   5.041   6.697 -0.0003 -0.0465  1.3468
 5226SOL    HW122677   4.736   5.050   6.719  0.2196 -0.9794  0.7831
 5226SOL    HW222678   4.587   5.028   6.781  0.3445  0.5877  1.6627
 5227SOL     OW22679   4.834   0.534   6.218  0.3213 -0.1480  0.0769
 5227SOL    HW122680   4.825   0.439   6.189  0.2997 -0.3787  0.8289
 5227SOL    HW222681   4.920   0.545   6.269  1.3441  0.6894 -1.7723
 5228SOL     OW22682   1.794   5.857   0.595  0.1649  0.4940 -0.6638
 5228SOL    HW122683   1.801   5.828   0.690  1.7621 -0.7284 -1.1515
 5228SOL    HW222684   1.703   5.896   0.579 -0.4787 -0.2560  1.0873
 5229SOL     OW22685   2.168   6.460   6.030  0.2166  0.2821 -0.4453
 5229SOL    HW122686   2.145   6.373   6.072  0.9729 -0.3905 -1.3834
 5229SOL    HW222687   2.168   6.532   6.099 -2.3167 -0.1022 -0.0231
 5230SOL     OW22688   0.668   3.779   1.446  0.2902 -0.1182  0.7935
 5230SOL    HW122689   0.677   3.734   1.357  2.0645  1.8759 -0.0777
 5230SOL    HW222690   0.633   3.872   1.433  0.5751  0.1928  2.1894
 5231SOL     OW22691   6.893   3.837   2.560  0.6822 -0.3838 -0.5481
 5231SOL    HW122692   6.976   3.880   2.595  1.3978 -0.8811 -1.5956
 5231SOL    HW222693   6.820   3.905   2.552  1.9004  0.7226 -2.5112
 5232SOL     OW22694   6.692   1.074   3.141 -0.6530 -0.5015  0.3417
 5232SOL    HW122695   6.778   1.093   3.187 -0.1216 -0.9900 -0.4370
 5232SOL    HW222696   6.693   0.980   3.106 -2.3204 -1.2171  2.1384
 5233SOL     OW22697   0.425   5.849   5.367  0.7862  0.2105  0.0153
 5233SOL    HW122698   0.417   5.853   5.267 -0.6605  0.0353  0.1142
 5233SOL    HW222699   0.407   5.756   5.398 -0.5140  0.6335  0.5701
 5234SOL     OW22700   5.109   3.173   4.215 -0.5948  0.3219 -0.1522
 5234SOL    HW122701   5.109   3.258   4.269 -1.9170 -1.0691  2.1568
 5234SOL    HW222702   5.192   3.168   4.160  1.5277  1.1981  2.8393
 5235SOL     OW22703   0.096   0.312   0.080 -0.0327  0.0594 -0.4500
 5235SOL    HW122704   0.020   0.257   0.113  0.2269  0.3730  0.6969
 5235SOL    HW222705   0.081   0.336  -0.016 -0.9819 -0.5508 -0.4570
 5236SOL     OW22706   3.148   2.712   0.477  0.2746  0.1773  0.4247
 5236SOL    HW122707   3.184   2.665   0.397  0.3863 -0.3658  0.7879
 5236SOL    HW222708   3.143   2.811   0.459 -1.5226 -0.1382 -0.9471
 5237SOL     OW22709   0.237   1.608   6.845  0.1953 -0.3226 -0.4651
 5237SOL    HW122710   0.336   1.613   6.859  0.0599 -0.2775  0.5246
 5237SOL    HW222711   0.204   1.696   6.811  0.7683 -0.9393 -2.6744
 5238SOL     OW22712   4.909   6.017   4.214  0.1750  0.4923  0.4111
 5238SOL    HW122713   4.911   6.008   4.314 -0.2468  2.1318  0.5792
 5238SOL    HW222714   5.001   6.038   4.181  0.4098 -0.5278  0.3970
 5239SOL     OW22715   5.899   3.072   6.690 -0.2610  0.3336 -0.2269
 5239SOL    HW122716   5.857   2.982   6.683 -1.1055  0.7405 -0.4580
 5239SOL    HW222717   5.828   3.142   6.688  0.3578  0.9878  0.3716
 5240SOL     OW22718   0.823   0.753   0.778 -0.0967  0.0119 -0.6739
 5240SOL    HW122719   0.819   0.654   0.773  2.1129 -0.0577 -1.6477
 5240SOL    HW222720   0.733   0.789   0.801 -1.3810 -2.1007 -2.2254
 5241SOL     OW22721   4.120   0.124   5.924 -0.1789 -0.0736 -0.0156
 5241SOL    HW122722   4.201   0.179   5.942 -0.6157  0.0571  1.6291
 5241SOL    HW222723   4.040   0.183   5.915 -0.8163 -0.4370  2.7202
 5242SOL     OW22724   3.622   0.285   1.734 -0.5008  0.2082 -0.1186
 5242SOL    HW122725   3.684   0.341   1.788 -0.0364  1.4448 -1.9057
 5242SOL    HW222726   3.668   0.201   1.707 -0.3786  0.0793  0.4791
 5243SOL     OW22727   4.270   4.249   3.732 -0.2849 -0.4454  0.5667
 5243SOL    HW122728   4.341   4.205   3.677  2.3042  3.2931  0.6709
 5243SOL    HW222729   4.293   4.237   3.829 -1.3391 -1.5661  0.6859
 5244SOL     OW22730   1.222   0.043   3.364  0.7052  0.3367 -0.0947
 5244SOL    HW122731   1.309  -0.004   3.379  0.3035 -0.1644  0.7644
 5244SOL    HW222732   1.205   0.106   3.440  0.3315  0.4351 -0.2582
 5245SOL     OW22733   4.392   6.811   1.468 -0.0287  0.0465  0.0497
 5245SOL    HW122734   4.356   6.882   1.408  2.6317 -0.1394 -1.8383
 5245SOL    HW222735   4.389   6.723   1.420 -0.4646 -0.6038  1.2507
 5246SOL     OW22736   1.293   5.484   4.938  0.3151 -0.0381  0.1089
 5246SOL    HW122737   1.313   5.387   4.951 -2.4098 -0.9908 -2.2973
 5246SOL    HW222738   1.208   5.507   4.986  0.4263  0.9297 -0.1494
 5247SOL     OW22739   1.189   3.534   2.191 -0.3130 -0.0485 -0.2393
 5247SOL    HW122740   1.214   3.524   2.094  0.7297  0.2209 -0.0111
 5247SOL    HW222741   1.257   3.486   2.247 -0.2072  0.8507  0.4120
 5248SOL     OW22742   4.661   3.289   1.819 -0.4630 -0.7328 -0.8992
 5248SOL    HW122743   4.748   3.338   1.816 -0.4400 -0.5681  1.5021
 5248SOL    HW222744   4.621   3.287   1.728  0.6075  1.8464 -1.4684
 5249SOL     OW22745   7.323   5.011   4.863  0.1735 -0.0831  0.4424
 5249SOL    HW122746   7.369   4.963   4.789  0.1868  1.0687 -0.3033
 5249SOL    HW222747   7.247   4.955   4.897  1.0213 -1.2084  0.4858
 5250SOL     OW22748   6.327   3.044   6.568  0.9235  0.2692 -0.0990
 5250SOL    HW122749   6.320   2.947   6.589  2.2439  0.3610  0.8094
 5250SOL    HW222750   6.255   3.094   6.617  1.5415  0.0010  1.0969
 5251SOL     OW22751   0.320   1.715   2.315  0.1622 -0.5996  0.7553
 5251SOL    HW122752   0.402   1.763   2.284 -1.5279  2.3045  0.6970
 5251SOL    HW222753   0.260   1.696   2.237 -1.0543  0.8600  1.3134
 5252SOL     OW22754   2.974   0.250   1.681 -0.0770  0.1571 -0.2850
 5252SOL    HW122755   2.989   0.164   1.631  3.9462  0.3728  0.3362
 5252SOL    HW222756   2.952   0.229   1.776 -0.0332 -0.1965 -0.3497
 5253SOL     OW22757   2.449   6.450   1.973 -0.4706  0.0920  0.3361
 5253SOL    HW122758   2.358   6.416   1.950  0.2996 -2.1239  0.4233
 5253SOL    HW222759   2.448   6.550   1.976 -2.4046  0.1704 -1.7118
 5254SOL     OW22760   2.970   1.949   1.422 -0.0599 -0.1311 -0.1033
 5254SOL    HW122761   2.889   1.922   1.369 -0.3866  0.5236  0.0539
 5254SOL    HW222762   2.962   1.915   1.515  0.3958 -1.0657 -0.3993
 5255SOL     OW22763   0.508   4.202   1.752 -0.2548 -0.0852  0.9893
 5255SOL    HW122764   0.550   4.292   1.738  0.4579 -0.1144  2.8673
 5255SOL    HW222765   0.576   4.139   1.789 -0.9120 -1.2378  0.2523
 5256SOL     OW22766   3.811   1.935   1.667  0.4885  0.0761 -0.4684
 5256SOL    HW122767   3.816   1.872   1.589  0.0955 -0.9502  0.3166
 5256SOL    HW222768   3.731   1.994   1.658 -0.9304 -1.6748  0.3388
 5257SOL     OW22769   5.216   6.144   3.847  0.5505  0.6374 -0.3216
 5257SOL    HW122770   5.301   6.153   3.794  0.3116 -0.1378 -0.8365
 5257SOL    HW222771   5.139   6.174   3.792  0.6039  2.4189  0.5364
 5258SOL     OW22772   1.566   0.051   7.096  0.4787 -0.1606  0.6878
 5258SOL    HW122773   1.553   0.009   7.186 -0.3345  0.8701  1.0590
 5258SOL    HW222774   1.625  -0.008   7.040  2.0279 -0.1901  2.3208
 5259SOL     OW22775   0.035   2.093   3.125 -0.2534  1.2899 -0.3673
 5259SOL    HW122776   0.015   2.031   3.201 -0.8071  0.4363 -1.1923
 5259SOL    HW222777   0.099   2.048   3.062 -0.9131  1.4317 -1.1383
 5260SOL     OW22778   5.127   2.917   3.346  0.0942  0.1239 -0.1307
 5260SOL    HW122779   5.223   2.895   3.327  0.2313 -0.9397  1.6273
 5260SOL    HW222780   5.068   2.851   3.299  0.1443  1.4881 -2.1845
 5261SOL     OW22781   3.431   6.364   7.240 -0.4353  0.0426 -0.0161
 5261SOL    HW122782   3.413   6.457   7.273 -2.0879 -0.1386 -0.3956
 5261SOL    HW222783   3.475   6.369   7.150 -1.8063  0.4546 -0.6785
 5262SOL     OW22784   5.058   6.055   3.276 -0.5656 -0.5360 -0.1150
 5262SOL    HW122785   5.037   6.023   3.183 -0.9920 -0.9013  0.1015
 5262SOL    HW222786   5.049   5.978   3.340 -0.9701 -0.1291  0.3222
 5263SOL     OW22787   2.982   3.968   7.329 -0.1026  0.3014  0.0241
 5263SOL    HW122788   2.938   3.894   7.278  1.4954 -0.0789 -0.8238
 5263SOL    HW222789   2.944   3.971   7.422 -2.4879  0.5093 -0.9168
 5264SOL     OW22790   0.080   3.393   5.551  0.2934  0.7308 -0.1261
 5264SOL    HW122791   0.017   3.352   5.619  0.8039 -0.0703 -0.1277
 5264SOL    HW222792   0.070   3.492   5.553 -0.5051  0.6542  0.3403
 5265SOL     OW22793   5.745   0.915   3.156 -0.5695  0.2333 -0.1471
 5265SOL    HW122794   5.741   0.827   3.108 -1.2248  0.7777 -1.0992
 5265SOL    HW222795   5.743   0.989   3.089  1.1162  0.9653  0.5857
 5266SOL     OW22796   0.838   4.751   3.759  0.2465  0.1405 -0.5154
 5266SOL    HW122797   0.863   4.773   3.665  1.5249 -0.5886 -0.3488
 5266SOL    HW222798   0.746   4.710   3.760 -0.4957  1.7597 -1.2411
 5267SOL     OW22799   6.073   7.278   1.703  0.0167 -0.1423 -0.0321
 5267SOL    HW122800   6.166   7.307   1.680  0.4210 -0.7716  0.8021
 5267SOL    HW222801   6.051   7.306   1.796 -0.4513 -0.4340 -0.0521
 5268SOL     OW22802   1.137   4.076   4.717 -0.6543 -0.1926  0.2672
 5268SOL    HW122803   1.125   3.978   4.730  1.8537 -0.5428  0.0806
 5268SOL    HW222804   1.112   4.124   4.801  1.2996 -1.2814  1.5177
 5269SOL     OW22805   5.425   2.909   3.719  0.0858  0.3003 -0.2934
 5269SOL    HW122806   5.455   2.959   3.800 -0.3101  0.7085 -0.4012
 5269SOL    HW222807   5.506   2.880   3.666  0.3517 -0.1929  0.3797
 5270SOL     OW22808   6.496   3.651   6.311  0.4050  0.0205 -0.0498
 5270SOL    HW122809   6.506   3.611   6.220 -0.5560 -1.1334  0.3426
 5270SOL    HW222810   6.572   3.621   6.369  0.8510  0.5076 -0.3820
 5271SOL     OW22811   3.732   3.331   6.081 -0.5471 -0.0251 -0.6853
 5271SOL    HW122812   3.815   3.353   6.132 -0.3345  0.4161 -1.2118
 5271SOL    HW222813   3.657   3.314   6.145  0.2124 -1.5195 -0.1797
 5272SOL     OW22814   6.291   5.785   4.050  0.1534 -0.2251  0.0634
 5272SOL    HW122815   6.249   5.847   3.983 -0.5190  1.1731  1.7478
 5272SOL    HW222816   6.390   5.788   4.041  0.0523 -0.4108 -1.1859
 5273SOL     OW22817   2.787   0.046   4.234 -0.2075 -0.4108 -0.1545
 5273SOL    HW122818   2.847   0.114   4.191  1.3600 -0.5659  1.7530
 5273SOL    HW222819   2.769  -0.028   4.168  0.2652  0.4925 -1.3255
 5274SOL     OW22820   6.978   0.783   5.149  0.1319  0.0023 -0.0827
 5274SOL    HW122821   6.999   0.701   5.095  0.3033 -0.0621  0.0798
 5274SOL    HW222822   6.999   0.865   5.096  0.5780 -0.0615 -0.0047
 5275SOL     OW22823   4.691   2.925   2.824 -0.2138 -0.2255  0.5056
 5275SOL    HW122824   4.759   2.892   2.759  0.4249 -0.0507  1.0777
 5275SOL    HW222825   4.632   2.992   2.779  1.1450  0.9792  0.4921
 5276SOL     OW22826   6.819   4.718   5.402  0.2572  0.3052  0.7609
 5276SOL    HW122827   6.843   4.783   5.473 -0.5115  1.1954  0.2136
 5276SOL    HW222828   6.732   4.744   5.361 -1.3233 -2.4138  2.2055
 5277SOL     OW22829   0.998   2.986   0.385 -0.2405  0.1286  0.3873
 5277SOL    HW122830   0.977   2.975   0.288 -0.2543  0.4889  0.3507
 5277SOL    HW222831   0.995   3.082   0.410  1.7093  0.2396  0.3005
 5278SOL     OW22832   1.478   3.505   2.091 -0.4601 -0.1237 -0.1530
 5278SOL    HW122833   1.554   3.565   2.117 -0.9817 -0.2268  1.6735
 5278SOL    HW222834   1.505   3.410   2.105 -0.0440 -0.2813 -1.9394
 5279SOL     OW22835   5.390   0.962   3.863  0.0741  0.2268 -0.4469
 5279SOL    HW122836   5.399   0.989   3.959 -1.5914  0.4648 -0.3560
 5279SOL    HW222837   5.361   0.867   3.858 -0.4280  0.3976 -0.7173
 5280SOL     OW22838   2.026   2.504   7.063 -0.6116 -0.5066  0.5416
 5280SOL    HW122839   2.095   2.553   7.009  0.8567 -0.2411  2.5954
 5280SOL    HW222840   1.981   2.436   7.006  0.0682  0.5850 -1.3246
 5281SOL     OW22841   2.274   3.787   3.260 -0.3639  0.4703  0.4090
 5281SOL    HW122842   2.196   3.729   3.284  1.1456 -2.1904 -0.8587
 5281SOL    HW222843   2.355   3.757   3.311  0.5848  1.0545 -0.7373
 5282SOL     OW22844   3.032   6.052   1.797  0.1360  0.3043 -0.0443
 5282SOL    HW122845   2.967   6.001   1.853  0.8614  0.2338  0.7534
 5282SOL    HW222846   3.098   5.990   1.757 -0.8871  0.2545 -1.6989
 5283SOL     OW22847   4.507   1.760   2.086  0.0673 -0.0597  0.0091
 5283SOL    HW122848   4.502   1.794   1.992  1.3166 -1.5761 -0.6218
 5283SOL    HW222849   4.602   1.748   2.112 -0.2140  1.7205  2.0052
 5284SOL     OW22850   0.941   6.086   6.472  0.5273 -0.0770  0.5712
 5284SOL    HW122851   0.944   6.124   6.380  0.0329  0.2633  0.6915
 5284SOL    HW222852   0.929   6.160   6.538 -0.7415 -0.4617  0.7854
 5285SOL     OW22853   6.323   1.080   2.718 -0.0785 -0.1054 -0.7280
 5285SOL    HW122854   6.364   1.119   2.635 -0.5827 -0.7528 -1.2904
 5285SOL    HW222855   6.335   1.143   2.794 -0.0806  0.7377 -1.4189
 5286SOL     OW22856   3.375   5.317   6.618  0.3606 -0.5296 -0.0713
 5286SOL    HW122857   3.335   5.225   6.618  0.4664 -0.5768 -0.5455
 5286SOL    HW222858   3.430   5.330   6.700 -1.2403 -0.2049  0.9934
 5287SOL     OW22859   5.490   4.105   0.856  0.2938  0.4181  0.0049
 5287SOL    HW122860   5.499   4.111   0.757  1.1621  2.8466  0.1989
 5287SOL    HW222861   5.581   4.107   0.898 -0.1660  2.1951  0.9589
 5288SOL     OW22862   2.822   5.422   5.257 -0.3982  0.4463  0.1987
 5288SOL    HW122863   2.737   5.473   5.275 -0.5197  0.2883  0.0759
 5288SOL    HW222864   2.878   5.420   5.339 -0.0831  1.3577  0.0188
 5289SOL     OW22865   7.219   3.226   0.742 -0.2413 -0.1105  0.3028
 5289SOL    HW122866   7.172   3.278   0.814 -1.0041 -0.3148 -0.0460
 5289SOL    HW222867   7.262   3.290   0.678 -0.0826  0.0757  0.5896
 5290SOL     OW22868   4.325   3.524   1.760 -0.5124 -0.4779  0.2580
 5290SOL    HW122869   4.243   3.497   1.709 -1.4321  0.8456  0.9978
 5290SOL    HW222870   4.328   3.472   1.846 -0.4159 -0.7520  0.0881
 5291SOL     OW22871   3.590   7.211   0.562 -0.2183  0.1967  0.4962
 5291SOL    HW122872   3.656   7.147   0.522  0.6966  1.3945  0.0280
 5291SOL    HW222873   3.555   7.175   0.648  0.1847 -0.9774  0.1751
 5292SOL     OW22874   1.764   0.880   0.365 -0.2278  0.0703 -0.2075
 5292SOL    HW122875   1.840   0.928   0.322  2.7167 -0.9719  3.5192
 5292SOL    HW222876   1.759   0.787   0.329  0.2406  0.1708 -0.5372
 5293SOL     OW22877   1.690   3.387   4.727 -0.5705 -0.4319  0.1434
 5293SOL    HW122878   1.690   3.400   4.827 -0.5292 -3.3504  0.5897
 5293SOL    HW222879   1.783   3.397   4.692 -0.5711  0.5218  0.4067
 5294SOL     OW22880   1.637   4.754   3.472 -0.0317  0.3702  0.0284
 5294SOL    HW122881   1.601   4.694   3.400  1.5602 -1.1290  0.4463
 5294SOL    HW222882   1.627   4.849   3.444 -2.0827 -0.0788 -0.9043
 5295SOL     OW22883   5.279   5.784   4.181 -0.8339  0.9406  0.7090
 5295SOL    HW122884   5.345   5.785   4.257  0.5059  0.8929 -0.4368
 5295SOL    HW222885   5.306   5.851   4.113 -0.4584 -0.9119 -1.0167
 5296SOL     OW22886   0.738   6.530   4.604  0.2042  0.5889  0.1058
 5296SOL    HW122887   0.674   6.512   4.529 -0.3631 -2.1781  1.1567
 5296SOL    HW222888   0.831   6.510   4.574 -0.2382 -2.7239  0.7032
 5297SOL     OW22889   3.168   6.217   6.090 -0.7317  0.0997 -0.1693
 5297SOL    HW122890   3.138   6.309   6.065  0.6549  0.4314 -0.6465
 5297SOL    HW222891   3.193   6.214   6.186  0.1669  0.4720 -0.3912
 5298SOL     OW22892   5.250   7.200   0.131  0.2961  0.0948 -0.3307
 5298SOL    HW122893   5.209   7.116   0.095  1.3617 -0.1485 -0.9953
 5298SOL    HW222894   5.347   7.203   0.107  0.8405  0.3368  1.8366
 5299SOL     OW22895   3.509   2.992   3.754 -0.6016 -0.1210  0.1702
 5299SOL    HW122896   3.424   3.044   3.763 -0.9426 -0.7118  0.3843
 5299SOL    HW222897   3.586   3.052   3.773 -0.9859  0.3352  0.3160
 5300SOL     OW22898   6.864   2.791   3.092 -0.0579 -0.6093  0.1010
 5300SOL    HW122899   6.828   2.788   2.999 -0.1609  0.6917  0.0895
 5300SOL    HW222900   6.944   2.731   3.099  1.9179  1.7651 -1.7025
 5301SOL     OW22901   3.467   0.458   1.603  0.1726 -0.0314  0.0332
 5301SOL    HW122902   3.530   0.515   1.549 -0.4419 -0.7903 -1.5291
 5301SOL    HW222903   3.519   0.388   1.651  0.6282 -0.0673 -0.5017
 5302SOL     OW22904   3.472   4.408   4.029  0.2707 -0.0297  0.1197
 5302SOL    HW122905   3.471   4.326   4.086  0.4398 -0.0929  0.0316
 5302SOL    HW222906   3.557   4.458   4.044 -0.0363  0.3789  0.5255
 5303SOL     OW22907   5.679   5.502   2.585  0.1164 -0.0561 -0.3424
 5303SOL    HW122908   5.616   5.481   2.510 -0.2704 -0.5181  0.1123
 5303SOL    HW222909   5.630   5.498   2.672  0.7035 -0.1082 -0.0146
 5304SOL     OW22910   3.239   5.081   6.659  0.0239 -0.2891 -0.1567
 5304SOL    HW122911   3.177   5.109   6.732  0.6885 -0.1090  0.3435
 5304SOL    HW222912   3.270   4.987   6.676  0.9827  0.1144  0.3457
 5305SOL     OW22913   5.714   5.948   1.578  0.1500  0.1405  0.0443
 5305SOL    HW122914   5.624   5.961   1.536  0.5505  0.3816 -0.7388
 5305SOL    HW222915   5.702   5.905   1.668 -0.7801  0.6343  0.1677
 5306SOL     OW22916   7.233   5.937   2.371  0.1080  0.1115  0.0243
 5306SOL    HW122917   7.251   6.023   2.324  0.0409 -0.1272 -0.4460
 5306SOL    HW222918   7.176   5.954   2.452 -0.2072  0.4620 -0.2691
 5307SOL     OW22919   3.676   4.147   4.004  0.4494  0.3947  0.1879
 5307SOL    HW122920   3.705   4.242   4.002 -1.4813  0.9602 -2.1630
 5307SOL    HW222921   3.594   4.138   4.061 -0.9662  0.6317 -1.7726
 5308SOL     OW22922   2.225   0.609   0.878  0.3963 -0.1528 -0.2632
 5308SOL    HW122923   2.248   0.542   0.948 -0.5010 -0.0620  0.1178
 5308SOL    HW222924   2.287   0.687   0.885 -0.1490  0.1732  0.8733
 5309SOL     OW22925   3.227   0.171   7.027 -0.1145 -0.0174 -0.1153
 5309SOL    HW122926   3.205   0.218   7.112 -1.4596 -1.3425  0.2904
 5309SOL    HW222927   3.260   0.237   6.959  0.7863  1.0714  1.3584
 5310SOL     OW22928   7.080   6.799   7.254  0.2687  0.4892 -0.2971
 5310SOL    HW122929   7.170   6.766   7.283  0.3516 -0.8770 -2.0154
 5310SOL    HW222930   7.023   6.817   7.335  1.0607 -1.5508  0.7553
 5311SOL     OW22931   3.663   0.130   4.978  0.1507  0.0828  0.8622
 5311SOL    HW122932   3.677   0.226   5.003  0.4237  0.0103  0.9870
 5311SOL    HW222933   3.580   0.096   5.022 -0.4003  0.4997  0.1479
 5312SOL     OW22934   1.877   3.770   7.007 -0.0923 -0.4301  0.0665
 5312SOL    HW122935   1.953   3.706   6.997  0.1107 -0.4100  1.4833
 5312SOL    HW222936   1.792   3.719   7.025  0.1183 -0.2894  1.4707
 5313SOL     OW22937   2.256   1.654   5.960 -0.3500 -0.1117 -0.1086
 5313SOL    HW122938   2.232   1.742   6.002  0.4021  0.2267 -0.3872
 5313SOL    HW222939   2.240   1.580   6.026 -1.6313  0.1593 -0.1005
 5314SOL     OW22940   5.168   1.419   6.246  0.0450  0.1114  0.1770
 5314SOL    HW122941   5.256   1.420   6.198  0.1008 -2.5176  0.1293
 5314SOL    HW222942   5.163   1.337   6.303 -1.2366  1.6927  2.4037
 5315SOL     OW22943   5.891   0.760   2.771  0.1867  0.3409 -0.9133
 5315SOL    HW122944   5.923   0.671   2.737  1.0748  0.5018 -0.5072
 5315SOL    HW222945   5.954   0.832   2.741 -0.1837  0.7546 -0.7076
 5316SOL     OW22946   5.803   1.155   3.926  0.1736  0.4759  0.5202
 5316SOL    HW122947   5.738   1.114   3.861  1.3831 -0.1519 -0.3190
 5316SOL    HW222948   5.755   1.220   3.984 -0.6612  2.1956 -2.0158
 5317SOL     OW22949   7.248   0.135   0.149  0.2586 -0.1724  0.1925
 5317SOL    HW122950   7.276   0.069   0.218 -0.1171  0.0861  0.5897
 5317SOL    HW222951   7.242   0.226   0.190  1.0113  0.1617 -0.4029
 5318SOL     OW22952   3.357   0.891   0.932 -0.1209  0.2999 -0.0016
 5318SOL    HW122953   3.340   0.895   1.031  0.5319 -1.8228  0.2201
 5318SOL    HW222954   3.444   0.935   0.911 -0.2142  0.6681  0.3805
 5319SOL     OW22955   7.285   0.847   5.731 -0.9127  0.4848  0.2412
 5319SOL    HW122956   7.267   0.884   5.640  1.8558  0.4735 -0.3610
 5319SOL    HW222957   7.342   0.911   5.783  1.7853 -1.6867  0.1063
 5320SOL     OW22958   6.667   4.539   1.058  0.1217 -0.7324  0.4349
 5320SOL    HW122959   6.676   4.502   1.150 -0.5876  1.1909  1.3074
 5320SOL    HW222960   6.571   4.558   1.039  0.5134  1.1114  0.2154
 5321SOL     OW22961   0.371   3.559   0.135 -0.1049 -0.2074 -0.0182
 5321SOL    HW122962   0.284   3.538   0.179 -0.2156  0.2268 -0.0296
 5321SOL    HW222963   0.408   3.643   0.175 -0.1660  0.1443 -0.7116
 5322SOL     OW22964   2.606   2.843   0.076  0.3726 -0.0849 -0.3221
 5322SOL    HW122965   2.647   2.930   0.050  1.3958 -0.1673  0.9728
 5322SOL    HW222966   2.553   2.807  -0.001  1.7355  0.5968 -1.6043
 5323SOL     OW22967   5.126   1.887   4.076  0.4213 -0.4090  0.2493
 5323SOL    HW122968   5.179   1.859   3.996  0.4108  0.8399 -0.2141
 5323SOL    HW222969   5.184   1.941   4.137  0.1178 -0.3914  0.5220
 5324SOL     OW22970   0.635   0.785   5.365 -0.5738 -0.2986  0.4453
 5324SOL    HW122971   0.624   0.761   5.461  0.1980  2.2579  1.2202
 5324SOL    HW222972   0.729   0.813   5.348 -0.5639 -1.2903 -1.1955
 5325SOL     OW22973   6.947   0.092   0.252 -0.1177 -0.7505  0.0706
 5325SOL    HW122974   6.885   0.013   0.253 -1.0709 -0.0223 -0.7866
 5325SOL    HW222975   6.893   0.176   0.244  0.9043 -0.0144  0.8028
 5326SOL     OW22976   1.967   6.053   2.406  0.4015 -0.5612  0.3307
 5326SOL    HW122977   1.878   6.014   2.434 -0.5554  0.9649 -0.5332
 5326SOL    HW222978   2.007   5.995   2.336 -0.6128 -0.4806 -0.3312
 5327SOL     OW22979   6.834   5.993   6.651  0.3819 -0.3993 -0.2670
 5327SOL    HW122980   6.863   5.926   6.720 -0.2711 -0.4288 -0.0160
 5327SOL    HW222981   6.765   6.054   6.691  0.2638 -0.1942 -0.7862
 5328SOL     OW22982   1.017   5.001   5.630 -0.2129  0.3402 -0.1729
 5328SOL    HW122983   0.941   4.936   5.638 -0.5144  0.6511 -0.4968
 5328SOL    HW222984   1.094   4.969   5.686 -0.7564  0.2817  0.5490
 5329SOL     OW22985   0.305   3.180   4.553 -0.0345  0.3292  0.2252
 5329SOL    HW122986   0.322   3.248   4.624  2.0130  0.0681  0.0242
 5329SOL    HW222987   0.209   3.182   4.527 -0.9954 -0.0602  3.5230
 5330SOL     OW22988   5.413   4.221   0.397 -0.0301 -0.2275 -0.1715
 5330SOL    HW122989   5.452   4.290   0.458 -0.5836  0.0831 -0.1643
 5330SOL    HW222990   5.485   4.161   0.363  0.5945  0.9925 -0.9845
 5331SOL     OW22991   5.973   0.377   5.386  0.1725  0.8820  0.1356
 5331SOL    HW122992   5.972   0.436   5.305  0.1792 -1.8890 -1.9630
 5331SOL    HW222993   5.946   0.430   5.466 -2.7911  3.0469 -2.1768
 5332SOL     OW22994   1.917   5.840   3.910  0.1237  0.3966 -0.1341
 5332SOL    HW122995   1.985   5.791   3.965 -0.4438 -0.2914 -0.0361
 5332SOL    HW222996   1.835   5.855   3.965  0.1945  1.2178 -0.2530
 5333SOL     OW22997   3.158   0.638   1.930 -0.0743 -0.3122 -0.2850
 5333SOL    HW122998   3.152   0.576   2.008 -0.0787 -0.4976 -0.4329
 5333SOL    HW222999   3.157   0.585   1.845 -1.8177 -0.0254 -0.4764
 5334SOL     OW23000   3.939   1.255   2.395  0.3884  0.5034  0.0507
 5334SOL    HW123001   4.032   1.287   2.413  0.0138  1.3377  0.5776
 5334SOL    HW223002   3.910   1.287   2.305  0.8717 -0.3760 -0.4189
 5335SOL     OW23003   1.843   2.666   5.007  0.5109  0.9217  0.1584
 5335SOL    HW123004   1.869   2.593   5.070 -0.5205 -0.6345 -1.1662
 5335SOL    HW223005   1.925   2.706   4.966  1.0110 -1.2714 -1.0417
 5336SOL     OW23006   5.570   4.905   1.313  0.1589  0.1313  0.7937
 5336SOL    HW123007   5.620   4.823   1.286  2.2225  1.5757  0.1101
 5336SOL    HW223008   5.600   4.934   1.404 -2.2835 -1.1826  2.0653
 5337SOL     OW23009   2.437   5.476   3.043  0.0651  0.1599 -0.7068
 5337SOL    HW123010   2.514   5.520   3.088  0.1786 -1.0428  0.2817
 5337SOL    HW223011   2.427   5.382   3.076 -0.8017 -0.2373 -2.0420
 5338SOL     OW23012   4.505   1.430   5.246 -0.5288 -0.8890 -0.4333
 5338SOL    HW123013   4.563   1.350   5.258 -2.4975 -2.2444  0.2451
 5338SOL    HW223014   4.495   1.450   5.148 -0.7893 -2.0645 -0.6567
 5339SOL     OW23015   5.068   1.163   4.672  1.1112  0.2206 -0.0839
 5339SOL    HW123016   5.159   1.140   4.706  0.7864  0.6553  1.1018
 5339SOL    HW223017   5.009   1.188   4.749 -0.8675 -2.9305 -0.4583
 5340SOL     OW23018   7.171   4.720   5.472 -0.4246 -0.2060 -0.1314
 5340SOL    HW123019   7.072   4.723   5.486 -0.4211  1.6688 -0.3493
 5340SOL    HW223020   7.190   4.716   5.374 -0.2631  1.5904 -0.1786
 5341SOL     OW23021   6.313   7.070   2.796 -0.6563  0.5086 -0.2258
 5341SOL    HW123022   6.404   7.040   2.822 -0.6255  0.1627 -0.7177
 5341SOL    HW223023   6.320   7.144   2.728 -0.7407  0.5820 -0.1554
 5342SOL     OW23024   3.274   6.695   6.673  0.7155  0.1366 -0.0528
 5342SOL    HW123025   3.277   6.668   6.577 -0.6058 -0.6602  0.1203
 5342SOL    HW223026   3.365   6.688   6.713  1.5464  1.7284 -1.5787
 5343SOL     OW23027   4.620   5.522   0.427  0.0809  0.2241  0.3709
 5343SOL    HW123028   4.650   5.431   0.457  0.9781  0.4648  0.2167
 5343SOL    HW223029   4.642   5.534   0.330  0.9069  1.0010  0.6569
 5344SOL     OW23030   0.653   6.187   1.893 -1.1119  0.5103 -0.4299
 5344SOL    HW123031   0.740   6.169   1.939 -1.8434 -2.1367  0.0113
 5344SOL    HW223032   0.586   6.220   1.960 -1.1502  0.1619 -0.2973
 5345SOL     OW23033   4.779   6.581   6.129  0.6460  0.4342 -0.5657
 5345SOL    HW123034   4.754   6.533   6.213  0.5690 -1.5190 -1.6744
 5345SOL    HW223035   4.876   6.567   6.110  0.4398 -0.0135 -1.3316
 5346SOL     OW23036   6.284   2.516   0.324 -0.4114 -0.0485  0.8619
 5346SOL    HW123037   6.219   2.574   0.276  0.7363  0.6194  0.1004
 5346SOL    HW223038   6.234   2.454   0.385 -1.9760 -1.4315 -1.7163
 5347SOL     OW23039   7.320   5.593   4.704  0.3013  0.3275 -0.0563
 5347SOL    HW123040   7.255   5.518   4.694 -0.5425  1.2867 -1.8533
 5347SOL    HW223041   7.412   5.560   4.683  0.0760 -0.4327  0.1328
 5348SOL     OW23042   2.170   6.527   5.380  0.2833  0.2991  0.0391
 5348SOL    HW123043   2.078   6.565   5.370  0.4978  0.4868 -1.3117
 5348SOL    HW223044   2.206   6.550   5.471 -1.7539 -1.4802  1.3416
 5349SOL     OW23045   5.915   1.927   4.139  0.2391  0.8319  0.1127
 5349SOL    HW123046   5.912   2.018   4.098 -0.0429  0.0172 -1.7674
 5349SOL    HW223047   5.881   1.930   4.232 -1.2509  2.3817 -0.4673
 5350SOL     OW23048   1.879   1.300   1.038  0.2383  0.2604  0.4083
 5350SOL    HW123049   1.798   1.255   1.074 -0.0986 -0.5483 -1.2766
 5350SOL    HW223050   1.955   1.289   1.102 -0.5818 -0.2891  1.3022
 5351SOL     OW23051   7.098   4.774   3.742 -0.3361 -0.5695  0.8091
 5351SOL    HW123052   7.151   4.693   3.716 -1.4176 -1.4646  1.3192
 5351SOL    HW223053   7.021   4.745   3.800 -0.7989  0.8193  0.8899
 5352SOL     OW23054   2.683   5.628   1.434 -0.3882  0.0270 -0.2548
 5352SOL    HW123055   2.741   5.549   1.414 -1.2311 -0.8148  0.5847
 5352SOL    HW223056   2.735   5.694   1.489  0.3587  0.1318 -1.0685
 5353SOL     OW23057   4.934   6.420   4.109  0.0131 -0.3364 -0.1503
 5353SOL    HW123058   4.932   6.509   4.154 -1.4824 -0.3129 -0.2242
 5353SOL    HW223059   4.997   6.423   4.031  1.1127  0.1970  0.7518
 5354SOL     OW23060   4.382   5.676   0.456 -0.5807 -0.2785  0.2043
 5354SOL    HW123061   4.464   5.621   0.441 -0.5886 -0.6075  1.2921
 5354SOL    HW223062   4.408   5.764   0.496 -0.6948 -0.0928 -0.1321
 5355SOL     OW23063   5.118   2.087   5.029  0.2617 -0.7521  0.4822
 5355SOL    HW123064   5.167   2.160   5.077 -1.0969  0.4232  0.1107
 5355SOL    HW223065   5.158   2.072   4.939 -0.8876  1.1437 -0.3652
 5356SOL     OW23066   1.390   3.418   1.090 -0.4373  0.1344  0.1325
 5356SOL    HW123067   1.395   3.483   1.165  0.1557  0.8172 -0.4916
 5356SOL    HW223068   1.358   3.465   1.007  0.4538 -0.2565 -0.4408
 5357SOL     OW23069   1.138   5.249   4.611 -0.1872  0.1717  1.0268
 5357SOL    HW123070   1.084   5.287   4.537 -1.6408 -1.6592  1.1210
 5357SOL    HW223071   1.227   5.295   4.615 -1.5156  2.8616  0.5591
 5358SOL     OW23072   4.000   3.391   5.917 -0.0923  0.3205  0.0924
 5358SOL    HW123073   3.997   3.471   5.858  1.1164  0.2528 -0.0773
 5358SOL    HW223074   3.949   3.409   6.001 -0.8178  0.8393 -0.4531
 5359SOL     OW23075   4.436   5.262   4.651 -0.1467 -0.3230 -0.5053
 5359SOL    HW123076   4.509   5.279   4.718 -1.4460 -0.6457  1.0147
 5359SOL    HW223077   4.474   5.214   4.572  1.0673 -1.4973  0.7763
 5360SOL     OW23078   1.113   2.106   5.751  0.2952  0.2744  0.5058
 5360SOL    HW123079   1.180   2.179   5.737  0.8804 -0.0793  1.3997
 5360SOL    HW223080   1.145   2.022   5.706  0.0660  0.3169  0.2600
 5361SOL     OW23081   2.133   4.668   0.904  0.1514 -0.2362  0.2308
 5361SOL    HW123082   2.217   4.660   0.851  1.7096  0.7384  2.4677
 5361SOL    HW223083   2.083   4.750   0.875  0.4052 -0.3355 -0.5012
 5362SOL     OW23084   5.385   5.394   5.375 -0.0043  0.1902  0.5728
 5362SOL    HW123085   5.444   5.474   5.392  0.0080  0.4828 -0.7777
 5362SOL    HW223086   5.375   5.342   5.459  0.7398  1.1211  1.2531
 5363SOL     OW23087   4.704   2.797   3.189 -0.3703  0.3321 -0.8873
 5363SOL    HW123088   4.652   2.712   3.189 -0.5752  0.4454  0.4395
 5363SOL    HW223089   4.642   2.875   3.200 -0.0072  0.5149 -0.0487
 5364SOL     OW23090   0.577   1.598   2.416 -0.4491  0.4858 -0.1918
 5364SOL    HW123091   0.630   1.541   2.353  0.8358  1.3918  0.0560
 5364SOL    HW223092   0.486   1.614   2.377 -0.1708 -0.1567 -1.1372
 5365SOL     OW23093   1.616   4.129   6.800  0.0078 -0.4258 -0.1156
 5365SOL    HW123094   1.695   4.072   6.821 -0.4316 -1.1906 -0.4706
 5365SOL    HW223095   1.541   4.106   6.863  0.1282  0.4171  0.3329
 5366SOL     OW23096   3.269   5.943   2.813  0.4848  0.4609  0.1262
 5366SOL    HW123097   3.304   5.850   2.819  0.0056  0.1920 -1.1291
 5366SOL    HW223098   3.230   5.959   2.722 -1.1172  1.2982  0.9399
 5367SOL     OW23099   5.618   3.171   0.498 -0.0847 -0.8052 -0.0621
 5367SOL    HW123100   5.634   3.225   0.581 -0.3497 -0.2240 -0.3807
 5367SOL    HW223101   5.698   3.178   0.438 -0.3316 -0.3094 -0.3447
 5368SOL     OW23102   2.358   2.489   5.482 -0.1680 -0.5106 -0.3622
 5368SOL    HW123103   2.418   2.451   5.553  0.4094 -0.7573 -0.9804
 5368SOL    HW223104   2.326   2.580   5.511  1.5478  0.1775 -0.6150
 5369SOL     OW23105   5.262   0.877   1.102  0.6653 -0.2630  0.0245
 5369SOL    HW123106   5.300   0.875   1.009 -0.9759  0.0437 -0.6675
 5369SOL    HW223107   5.162   0.878   1.097  0.5140 -2.7010  1.8529
 5370SOL     OW23108   3.186   1.845   1.025 -0.2340  0.1449  0.1964
 5370SOL    HW123109   3.161   1.906   1.100  0.2174 -0.2643  0.6877
 5370SOL    HW223110   3.110   1.838   0.960 -0.2956  1.2053  0.1467
 5371SOL     OW23111   5.133   4.826   6.260 -0.2879 -0.0351  0.6280
 5371SOL    HW123112   5.151   4.750   6.198 -0.8431  0.2538  0.1080
 5371SOL    HW223113   5.214   4.844   6.315  0.0605 -0.5844  0.2962
 5372SOL     OW23114   0.137   5.157   4.007  0.8057 -0.1095  0.5367
 5372SOL    HW123115   0.060   5.212   4.037  2.6074  2.0000  1.3731
 5372SOL    HW223116   0.103   5.071   3.967 -1.9174  0.5828  1.2830
 5373SOL     OW23117   4.218   5.185   2.110  0.4800 -0.5396 -0.1127
 5373SOL    HW123118   4.235   5.096   2.069  0.7046 -0.9929  0.9561
 5373SOL    HW223119   4.305   5.227   2.138  0.3511 -0.1096 -0.3411
 5374SOL     OW23120   4.438   7.002   2.394  0.2012  0.0548 -0.1355
 5374SOL    HW123121   4.379   7.068   2.347  1.7391  0.8049 -1.0700
 5374SOL    HW223122   4.484   7.047   2.471 -0.1669 -0.4274  0.3675
 5375SOL     OW23123   3.768   1.450   4.873  0.6164  0.0678  0.5171
 5375SOL    HW123124   3.829   1.412   4.942  0.6362 -0.8784 -0.0104
 5375SOL    HW223125   3.808   1.437   4.782  0.3622  0.8640  0.2800
 5376SOL     OW23126   3.640   1.285   5.910  0.3924  1.0065 -0.2466
 5376SOL    HW123127   3.666   1.378   5.937  2.4116  0.7871 -1.3451
 5376SOL    HW223128   3.686   1.219   5.969 -1.4919  0.6903  0.9059
 5377SOL     OW23129   5.239   2.043   0.434  0.2401 -0.1115  0.3484
 5377SOL    HW123130   5.175   2.091   0.495 -1.4955 -1.6753 -0.1672
 5377SOL    HW223131   5.258   1.952   0.471  2.5173  0.4727  0.6876
 5378SOL     OW23132   4.456   7.296   1.740 -0.3920 -0.3465  0.0018
 5378SOL    HW123133   4.548   7.270   1.711 -1.2532 -1.3763 -1.9545
 5378SOL    HW223134   4.389   7.244   1.687 -2.1695  2.9613 -1.1421
 5379SOL     OW23135   5.031   1.951   3.331  0.5552  0.0837 -0.0032
 5379SOL    HW123136   5.010   2.049   3.325 -1.4297 -0.1265  2.4996
 5379SOL    HW223137   4.953   1.898   3.297  2.1870 -0.6877 -2.7434
 5380SOL     OW23138   5.807   0.069   5.160 -0.0597 -0.0793 -0.3276
 5380SOL    HW123139   5.848   0.057   5.069 -0.4373  0.8998 -0.6351
 5380SOL    HW223140   5.767   0.160   5.166  0.3770  0.0281  0.9913
 5381SOL     OW23141   4.315   2.029   4.030  0.2981  0.1063  0.1026
 5381SOL    HW123142   4.277   2.054   3.941 -1.5572  1.0192  1.1311
 5381SOL    HW223143   4.281   2.092   4.100  0.6844 -1.4128  1.6898
 5382SOL     OW23144   0.943   3.759   5.849  0.2275 -0.5784  0.1925
 5382SOL    HW123145   0.994   3.725   5.928  2.0747  0.4211 -0.5273
 5382SOL    HW223146   0.979   3.849   5.823 -1.0133 -0.4675 -1.1802
 5383SOL     OW23147   3.098   5.277   4.125  0.3199 -0.9750 -0.4885
 5383SOL    HW123148   3.136   5.246   4.038 -2.2037 -1.1657 -1.5627
 5383SOL    HW223149   3.007   5.316   4.110  0.3789  0.1705  1.8909
 5384SOL     OW23150   2.158   2.258   3.012  0.0522 -0.6427 -0.1179
 5384SOL    HW123151   2.175   2.355   3.029  0.3399 -0.4104 -1.6233
 5384SOL    HW223152   2.152   2.209   3.099 -0.4332  0.7768  0.6595
 5385SOL     OW23153   5.716   5.711   1.821  0.4019  0.0761  0.0460
 5385SOL    HW123154   5.629   5.686   1.863 -0.2860  1.6681 -0.3813
 5385SOL    HW223155   5.784   5.730   1.892  0.5423 -1.5733  0.3772
 5386SOL     OW23156   4.992   2.310   0.196  0.4082  0.2269 -0.0254
 5386SOL    HW123157   4.905   2.357   0.185 -0.6089 -1.7567 -0.5912
 5386SOL    HW223158   5.039   2.347   0.276 -1.2557  0.8287  0.6965
 5387SOL     OW23159   5.979   0.751   4.845 -0.0806  0.0713 -0.0597
 5387SOL    HW123160   5.900   0.735   4.904 -1.0941  0.7923 -1.2269
 5387SOL    HW223161   5.970   0.697   4.761  0.9439 -0.2799  0.0453
 5388SOL     OW23162   7.207   3.944   6.362  0.2731  0.2970 -0.2428
 5388SOL    HW123163   7.250   3.864   6.404  2.2046  0.9429 -0.9082
 5388SOL    HW223164   7.182   3.922   6.268 -1.9769 -0.4472  0.5120
 5389SOL     OW23165   7.301   1.534   7.156  0.0227  0.0920  0.6317
 5389SOL    HW123166   7.219   1.577   7.118  0.8192  0.6319 -0.4885
 5389SOL    HW223167   7.285   1.514   7.253 -1.3807  0.3161  0.4665
 5390SOL     OW23168   5.103   4.082   1.547  0.1504 -0.4849 -0.3574
 5390SOL    HW123169   5.105   4.052   1.452  0.1497 -0.3706 -0.3945
 5390SOL    HW223170   5.190   4.128   1.568 -0.8031  1.7163 -1.0382
 5391SOL     OW23171   4.066   6.811   3.169 -0.0068  0.1706  0.0672
 5391SOL    HW123172   4.044   6.889   3.110  0.9918 -1.3043 -2.2950
 5391SOL    HW223173   4.137   6.755   3.126 -1.9317 -3.0302  0.9008
 5392SOL     OW23174   0.800   3.324   1.016  0.0524  0.2317 -0.0695
 5392SOL    HW123175   0.831   3.259   1.085 -1.8309  0.4458  1.0288
 5392SOL    HW223176   0.876   3.383   0.989  0.7358  0.4894  2.2401
 5393SOL     OW23177   0.763   1.023   3.319  0.4143 -0.1755  0.1618
 5393SOL    HW123178   0.743   0.992   3.413 -1.4012  3.3056  1.0030
 5393SOL    HW223179   0.861   1.036   3.309  0.3110  3.6497  3.0776
 5394SOL     OW23180   5.835   1.867   0.957 -0.5716 -0.5901 -0.2381
 5394SOL    HW123181   5.795   1.868   1.049  0.7097 -0.6540  0.3291
 5394SOL    HW223182   5.839   1.773   0.923  0.5807 -0.7643  0.3678
 5395SOL     OW23183   3.537   0.344   0.922  0.1506 -0.8389 -0.0375
 5395SOL    HW123184   3.497   0.273   0.980 -1.3421 -0.1409 -0.1997
 5395SOL    HW223185   3.471   0.371   0.852  0.3708  1.3150  0.5452
 5396SOL     OW23186   6.168   1.254   6.098  0.6509 -0.0854  0.1091
 5396SOL    HW123187   6.140   1.285   6.007 -0.8239 -1.9038 -0.0919
 5396SOL    HW223188   6.162   1.154   6.102  2.8413 -0.1932  1.5223
 5397SOL     OW23189   5.608   2.183   1.713 -0.2473 -0.1602 -0.3581
 5397SOL    HW123190   5.574   2.207   1.803 -1.2626 -1.0737 -0.4918
 5397SOL    HW223191   5.669   2.103   1.721 -1.0367 -0.7913 -0.5866
 5398SOL     OW23192   3.437   7.130   4.944 -0.1498 -0.2584  0.5544
 5398SOL    HW123193   3.500   7.127   4.866 -0.3063 -1.3786  0.4669
 5398SOL    HW223194   3.489   7.115   5.028  0.3247  2.8095  0.8748
 5399SOL     OW23195   0.916   7.128   5.700  0.2116 -0.1128 -0.1444
 5399SOL    HW123196   0.974   7.209   5.699 -1.7981  1.3773 -0.9628
 5399SOL    HW223197   0.899   7.100   5.794  2.4193 -0.7096  0.0925
 5400SOL     OW23198   2.196   5.837   0.621 -0.3350 -0.4504 -0.6914
 5400SOL    HW123199   2.140   5.904   0.572  0.8838  0.5489 -0.7230
 5400SOL    HW223200   2.187   5.852   0.719 -1.2117 -1.1911 -0.6472
 5401SOL     OW23201   4.998   0.099   2.604  0.1051 -0.0257  0.9858
 5401SOL    HW123202   4.900   0.108   2.622  0.1075  1.4931  0.3083
 5401SOL    HW223203   5.012   0.060   2.512  0.1015  3.8903 -0.7808
 5402SOL     OW23204   0.915   1.049   6.368 -0.4020  0.1705 -0.0139
 5402SOL    HW123205   0.885   1.126   6.423 -0.5977 -0.9588  1.4951
 5402SOL    HW223206   0.917   0.966   6.424  0.6817 -0.7526 -1.3665
 5403SOL     OW23207   0.579   5.714   5.809 -0.2452  0.0234 -0.2466
 5403SOL    HW123208   0.585   5.615   5.818  0.0805  0.0234 -0.4579
 5403SOL    HW223209   0.644   5.745   5.739 -1.2662  0.2515 -1.1015
 5404SOL     OW23210   3.502   0.944   7.021  0.5407 -0.0544 -0.1395
 5404SOL    HW123211   3.552   1.027   7.046  0.2830 -0.3413  1.3914
 5404SOL    HW223212   3.483   0.891   7.103 -2.2875  0.0443 -0.6904
 5405SOL     OW23213   0.958   2.250   0.238 -0.4583 -0.0519 -0.0300
 5405SOL    HW123214   0.986   2.167   0.190  0.4039 -0.2163  0.7534
 5405SOL    HW223215   0.953   2.232   0.336 -0.1644  0.8553  0.1553
 5406SOL     OW23216   5.803   4.089   2.081 -0.3101 -0.2312  0.4272
 5406SOL    HW123217   5.869   4.015   2.098  0.6862  0.8420  1.3575
 5406SOL    HW223218   5.791   4.101   1.983  0.6714 -0.6351  0.2507
 5407SOL     OW23219   4.174   5.032   3.263  0.3819  0.1209 -0.0544
 5407SOL    HW123220   4.092   4.979   3.285 -0.3571  1.4381  0.4870
 5407SOL    HW223221   4.232   4.980   3.201  0.6119 -2.0835  1.9492
 5408SOL     OW23222   6.470   3.859   3.312 -0.0268  0.2758 -0.0554
 5408SOL    HW123223   6.524   3.778   3.291 -1.9489 -1.2410  0.7375
 5408SOL    HW223224   6.420   3.845   3.397 -2.9875  0.9727 -1.6249
 5409SOL     OW23225   0.466   3.996   1.575 -0.5446 -0.0065 -0.2216
 5409SOL    HW123226   0.450   4.011   1.477  1.3455  1.7337 -0.3049
 5409SOL    HW223227   0.456   4.082   1.624  0.4824 -0.4753  0.8320
 5410SOL     OW23228   0.759   1.981   2.048 -0.3265  0.7070 -0.3633
 5410SOL    HW123229   0.674   2.033   2.057 -0.6066  0.4859 -1.6201
 5410SOL    HW223230   0.822   2.030   1.987  0.6855  1.1527  1.0094
 5411SOL     OW23231   3.222   4.273   4.835 -0.6507  0.1062  0.3066
 5411SOL    HW123232   3.138   4.319   4.865 -1.2042 -0.5390 -0.2498
 5411SOL    HW223233   3.217   4.254   4.737  0.0089 -0.2269  0.3345
 5412SOL     OW23234   6.552   0.044   7.357 -0.2266  0.1384  0.0228
 5412SOL    HW123235   6.648   0.059   7.335 -0.3160  0.5504 -0.0749
 5412SOL    HW223236   6.503   0.011   7.276 -0.1239 -0.2835  0.1289
 5413SOL     OW23237   3.100   3.657   3.571  0.1875  0.3098  0.6054
 5413SOL    HW123238   3.199   3.659   3.588  0.1653  0.6857  0.6894
 5413SOL    HW223239   3.051   3.679   3.655  0.0784  2.0084  0.0989
 5414SOL     OW23240   4.641   1.978   4.925  0.2951 -0.2530  0.0317
 5414SOL    HW123241   4.651   2.016   5.017  0.9060 -0.7818  0.1794
 5414SOL    HW223242   4.730   1.975   4.880  0.3649 -2.1393  0.2594
 5415SOL     OW23243   1.100   4.123   3.221 -0.2915 -0.0481 -0.5568
 5415SOL    HW123244   1.120   4.167   3.134 -0.9852 -1.8390 -1.6407
 5415SOL    HW223245   1.169   4.053   3.240 -0.0033  0.4881  0.4851
 5416SOL     OW23246   1.077   1.443   0.321 -0.4427  0.2150 -0.0582
 5416SOL    HW123247   0.984   1.413   0.299 -0.6281  0.1430  0.8290
 5416SOL    HW223248   1.130   1.450   0.236 -1.1129 -0.2127 -0.5179
 5417SOL     OW23249   4.364   2.277   1.240  0.7997 -0.0077  0.1621
 5417SOL    HW123250   4.393   2.214   1.168 -1.6312  0.8862 -1.6385
 5417SOL    HW223251   4.392   2.370   1.216 -0.1419  0.3147  0.3129
 5418SOL     OW23252   3.721   4.551   4.027  1.1705 -0.4725  0.1660
 5418SOL    HW123253   3.680   4.625   3.972  1.7055  0.5558  1.1221
 5418SOL    HW223254   3.779   4.495   3.968  1.6923  0.5815 -0.3582
 5419SOL     OW23255   3.668   6.974   5.709  0.3651 -0.2891 -0.4400
 5419SOL    HW123256   3.623   7.062   5.726  0.5391 -0.2807  0.0060
 5419SOL    HW223257   3.742   6.987   5.643 -0.0806 -0.2432 -0.9324
 5420SOL     OW23258   2.368   6.879   3.735  1.0329  0.4793  0.2930
 5420SOL    HW123259   2.283   6.838   3.769  0.8061  0.8088  0.1192
 5420SOL    HW223260   2.417   6.921   3.812  1.3881 -0.3238  0.5181
 5421SOL     OW23261   6.379   0.344   6.529  0.5730 -0.3400  0.1555
 5421SOL    HW123262   6.416   0.260   6.490  1.2357  0.1395 -0.2685
 5421SOL    HW223263   6.355   0.330   6.625  3.1650 -0.2871  0.8350
 5422SOL     OW23264   6.467   5.499   3.378 -0.8986  0.3967 -0.0782
 5422SOL    HW123265   6.470   5.436   3.455 -1.3114  1.1558  0.5642
 5422SOL    HW223266   6.375   5.500   3.339  0.4327 -3.7390 -3.7552
 5423SOL     OW23267   4.292   5.272   5.857  0.1196 -0.2728  0.4508
 5423SOL    HW123268   4.241   5.275   5.943 -0.7590 -1.3019 -0.0235
 5423SOL    HW223269   4.257   5.197   5.800  1.7850 -0.6511 -0.1113
 5424SOL     OW23270   2.107   2.053   4.451  0.3948  0.4996 -0.2220
 5424SOL    HW123271   2.165   2.019   4.525 -2.1529 -0.4885  1.3912
 5424SOL    HW223272   2.075   1.976   4.395 -0.6474  0.8443 -0.1189
 5425SOL     OW23273   4.987   5.006   4.519 -0.1498 -0.1145 -0.5350
 5425SOL    HW123274   5.039   4.963   4.592 -0.5899 -0.2089 -0.2723
 5425SOL    HW223275   5.048   5.057   4.459  0.0353  1.3124  0.8314
 5426SOL     OW23276   2.039   4.578   6.624  0.2980  0.3570 -0.4068
 5426SOL    HW123277   2.072   4.487   6.652 -0.6309 -0.0641 -0.6513
 5426SOL    HW223278   1.950   4.595   6.667  1.5095  2.1153  1.4732
 5427SOL     OW23279   5.176   1.386   0.721  0.3138 -0.4624 -0.2437
 5427SOL    HW123280   5.120   1.345   0.793 -0.8562 -1.1465 -1.5099
 5427SOL    HW223281   5.272   1.384   0.748 -0.3247  1.3598  2.2610
 5428SOL     OW23282   4.907   4.325   0.751 -0.6019 -0.4093  0.0186
 5428SOL    HW123283   4.892   4.228   0.767  0.5229 -0.2908  1.9225
 5428SOL    HW223284   4.872   4.378   0.828  1.1829  0.4960  0.2434
 5429SOL     OW23285   1.641   4.169   6.326 -0.1928 -0.1590 -0.1284
 5429SOL    HW123286   1.707   4.245   6.329 -0.1416 -0.1398 -1.4008
 5429SOL    HW223287   1.554   4.202   6.289 -0.6616 -0.3772  0.7656
 5430SOL     OW23288   0.690   1.783   3.213 -0.2535 -0.3860  0.3694
 5430SOL    HW123289   0.746   1.828   3.142 -1.8431  0.7399 -0.1891
 5430SOL    HW223290   0.619   1.846   3.244  0.6089 -0.7673  3.2153
 5431SOL     OW23291   5.297   4.861   1.698  0.1238  0.0246  0.3427
 5431SOL    HW123292   5.344   4.788   1.648  1.3454  1.1646 -0.1986
 5431SOL    HW223293   5.363   4.931   1.724 -0.5885 -0.2578  3.0989
 5432SOL     OW23294   2.485   0.261   5.548 -0.4804  0.4635 -0.4562
 5432SOL    HW123295   2.568   0.216   5.516 -1.7390 -1.2053 -1.4648
 5432SOL    HW223296   2.417   0.192   5.571 -0.3052  1.6553  4.0547
 5433SOL     OW23297   7.340   2.587   3.639 -0.3493  0.2389 -0.1190
 5433SOL    HW123298   7.263   2.623   3.690 -1.5672 -1.2122 -0.8895
 5433SOL    HW223299   7.344   2.629   3.548  0.4442  1.1258  0.3149
 5434SOL     OW23300   4.645   0.642   3.089 -0.8616 -0.2633 -0.4232
 5434SOL    HW123301   4.733   0.599   3.068 -0.4276  0.2611  0.3117
 5434SOL    HW223302   4.647   0.738   3.061 -0.8299  0.0245  0.5271
 5435SOL     OW23303   1.524   4.527   1.437 -0.2033 -0.0890 -0.2517
 5435SOL    HW123304   1.535   4.436   1.477 -1.4326 -0.0969  0.0728
 5435SOL    HW223305   1.539   4.596   1.507  0.4357 -0.0395 -0.4311
 5436SOL     OW23306   4.497   2.610   6.081  0.4740  0.2814  0.0768
 5436SOL    HW123307   4.489   2.710   6.085 -0.0740  0.3102 -1.3139
 5436SOL    HW223308   4.591   2.583   6.099  0.4591  0.9927  1.2873
 5437SOL     OW23309   5.490   5.877   4.745  0.4439 -0.0346 -0.3109
 5437SOL    HW123310   5.477   5.969   4.708  0.3861 -0.4921 -1.4391
 5437SOL    HW223311   5.491   5.881   4.845 -0.2799  1.0947 -0.3422
 5438SOL     OW23312   3.193   2.840   4.889  0.0170 -0.2416  0.0203
 5438SOL    HW123313   3.193   2.752   4.844  2.7769 -0.0324 -0.4623
 5438SOL    HW223314   3.140   2.906   4.835  0.4426 -0.8542 -1.1545
 5439SOL     OW23315   1.424   1.748   1.130 -0.1997 -0.6998  0.0759
 5439SOL    HW123316   1.403   1.686   1.054  2.3907 -1.8590  0.2509
 5439SOL    HW223317   1.523   1.753   1.142 -0.4750  1.4636  1.7749
 5440SOL     OW23318   6.288   2.810   0.195 -0.1058 -0.2407  0.5082
 5440SOL    HW123319   6.275   2.830   0.292 -1.6305  0.8726  0.0944
 5440SOL    HW223320   6.360   2.868   0.158 -1.0008  0.8482  0.4795
 5441SOL     OW23321   2.264   1.440   3.053 -0.3125  0.0502  0.3203
 5441SOL    HW123322   2.281   1.488   3.138 -2.3124  1.8179 -0.2139
 5441SOL    HW223323   2.341   1.452   2.991 -0.9902  3.1422 -0.0116
 5442SOL     OW23324   1.390   3.681   3.225 -0.0803  0.3493 -0.1295
 5442SOL    HW123325   1.297   3.647   3.239  0.6928 -0.7977  2.3794
 5442SOL    HW223326   1.396   3.775   3.257 -0.3333  0.4067 -0.2408
 5443SOL     OW23327   5.381   3.681   2.832  0.0909 -0.0723  0.2190
 5443SOL    HW123328   5.325   3.617   2.885 -1.8088  0.9650 -0.4961
 5443SOL    HW223329   5.469   3.695   2.879 -1.2525  0.2731  2.7248
 5444SOL     OW23330   1.089   0.150   6.815  0.3599 -0.1511  0.4585
 5444SOL    HW123331   1.151   0.165   6.738 -0.3914  0.3903 -0.0451
 5444SOL    HW223332   1.139   0.107   6.890  0.7842 -1.8725 -0.7961
 5445SOL     OW23333   3.596   1.091   5.404  0.2429 -0.1103 -0.2794
 5445SOL    HW123334   3.498   1.097   5.419  0.3510  0.4020  0.2752
 5445SOL    HW223335   3.621   1.139   5.320 -0.1725 -1.5890 -1.2596
 5446SOL     OW23336   3.539   2.933   3.498 -0.0445 -0.0408  0.5459
 5446SOL    HW123337   3.614   2.867   3.504 -0.6969 -0.8996 -0.4101
 5446SOL    HW223338   3.507   2.957   3.590 -0.0030 -1.3169  0.9044
 5447SOL     OW23339   0.001   3.478   3.666  0.0015 -0.2293  0.7259
 5447SOL    HW123340  -0.053   3.558   3.690  0.8295  0.3138  0.8145
 5447SOL    HW223341   0.097   3.495   3.689  0.6460 -0.1090 -1.8925
 5448SOL     OW23342   1.928   3.773   2.077  0.0974 -0.3024 -0.3255
 5448SOL    HW123343   1.999   3.726   2.025 -0.1300 -1.5017  0.4301
 5448SOL    HW223344   1.970   3.838   2.140  0.5900 -1.7847  0.8894
 5449SOL     OW23345   3.547   5.561   5.721  0.0973  0.1753  0.4465
 5449SOL    HW123346   3.561   5.625   5.646 -0.6578  1.6866  1.5635
 5449SOL    HW223347   3.635   5.538   5.762  0.5141 -0.6477 -0.8635
 5450SOL     OW23348   3.412   6.977   1.566  0.4289  0.4696  0.0959
 5450SOL    HW123349   3.505   6.946   1.547  0.9945  2.3208 -0.2113
 5450SOL    HW223350   3.374   7.020   1.484  0.3794  2.3354  1.0758
 5451SOL     OW23351   6.625   3.564   1.259  0.2902  0.0955 -0.1723
 5451SOL    HW123352   6.598   3.568   1.356  1.3863  0.3809  0.1294
 5451SOL    HW223353   6.700   3.499   1.249  1.4082  1.4420 -0.5409
 5452SOL     OW23354   4.239   2.315   2.720  0.4981 -0.0073 -0.6493
 5452SOL    HW123355   4.281   2.279   2.804 -1.8210 -0.0129  0.5512
 5452SOL    HW223356   4.254   2.252   2.645  2.9106  0.1608 -0.3330
 5453SOL     OW23357   1.466   5.621   6.779  0.2305  0.0599 -0.0478
 5453SOL    HW123358   1.423   5.531   6.781 -2.0595  1.0436 -2.6000
 5453SOL    HW223359   1.560   5.611   6.746  0.0777 -1.4136 -0.0867
 5454SOL     OW23360   2.017   2.832   2.362  0.0152 -0.4033  0.0044
 5454SOL    HW123361   2.003   2.822   2.263  0.0057 -3.7219  0.2865
 5454SOL    HW223362   2.109   2.866   2.379  1.2323 -2.9785 -1.1033
 5455SOL     OW23363   5.436   3.649   5.906  0.5473 -0.2387  1.0434
 5455SOL    HW123364   5.339   3.627   5.894  0.7342 -1.0957  1.0649
 5455SOL    HW223365   5.448   3.748   5.907  0.0620 -0.0788 -2.3402
 5456SOL     OW23366   5.353   3.719   0.545 -0.1743 -0.2365 -0.2879
 5456SOL    HW123367   5.303   3.756   0.467  0.6784 -1.3642 -1.4024
 5456SOL    HW223368   5.421   3.786   0.575  0.8251 -0.5277 -1.7914
 5457SOL     OW23369   2.017   2.255   2.766  0.1773  0.2352 -0.1984
 5457SOL    HW123370   2.088   2.234   2.698  0.8363 -0.1943  0.5982
 5457SOL    HW223371   2.059   2.254   2.857 -1.0628 -1.0228  0.3688
 5458SOL     OW23372   5.997   5.318   7.141 -0.3021 -0.1341  0.2391
 5458SOL    HW123373   6.058   5.315   7.062  0.7617  2.5499  0.9043
 5458SOL    HW223374   5.979   5.224   7.172  2.7487 -1.0554 -0.5580
 5459SOL     OW23375   1.129   0.560   5.948  0.1515 -0.0730 -0.2521
 5459SOL    HW123376   1.201   0.561   5.878 -0.1400  0.7040 -0.5514
 5459SOL    HW223377   1.131   0.647   5.998  0.1956 -0.5279  0.5379
 5460SOL     OW23378   4.071   7.281   2.538 -0.2946  0.1967  0.5768
 5460SOL    HW123379   3.978   7.268   2.572  0.1489  2.4040  2.8240
 5460SOL    HW223380   4.081   7.374   2.503  1.5660  0.6235  2.1444
 5461SOL     OW23381   5.361   1.126   6.043 -0.1149  0.3315  0.8067
 5461SOL    HW123382   5.432   1.060   6.015  0.3524  0.4883  1.6247
 5461SOL    HW223383   5.401   1.217   6.049 -0.1403  0.2457  2.3137
 5462SOL     OW23384   4.658   0.557   7.213 -0.1681 -0.0811 -0.3707
 5462SOL    HW123385   4.562   0.535   7.202 -0.6001  0.9014  1.2471
 5462SOL    HW223386   4.687   0.619   7.140 -0.8233 -0.1892 -0.7207
 5463SOL     OW23387   3.155   2.753   5.970  0.0005  0.2905 -0.0381
 5463SOL    HW123388   3.238   2.730   5.919  1.0175 -2.1887  2.6078
 5463SOL    HW223389   3.107   2.669   5.995 -2.0706  1.6053  0.5166
 5464SOL     OW23390   7.252   4.911   3.905 -0.3118  0.1216 -0.1822
 5464SOL    HW123391   7.345   4.881   3.881  0.5804  1.5504  1.4578
 5464SOL    HW223392   7.189   4.880   3.833  1.7255  0.9430 -2.4033
 5465SOL     OW23393   1.926   4.375   1.904  0.2238 -0.0316  0.2018
 5465SOL    HW123394   1.975   4.454   1.939 -0.0886  0.2624 -0.0278
 5465SOL    HW223395   1.828   4.394   1.901  0.1269 -0.4953  0.3354
 5466SOL     OW23396   1.581   3.932   4.513  0.6921 -0.0283  0.5130
 5466SOL    HW123397   1.591   3.834   4.533  0.6367 -0.0048  0.6560
 5466SOL    HW223398   1.669   3.977   4.528  0.5113  0.0883  1.2619
 5467SOL     OW23399   1.607   3.254   4.108  0.6744 -0.0265 -0.1028
 5467SOL    HW123400   1.673   3.181   4.127  0.4612 -0.2786 -0.3270
 5467SOL    HW223401   1.601   3.269   4.009  0.9411  0.5010 -0.0425
 5468SOL     OW23402   4.503   7.142   5.207 -0.1322 -0.0165  0.1824
 5468SOL    HW123403   4.577   7.128   5.273 -0.2974  0.0960  0.3941
 5468SOL    HW223404   4.512   7.233   5.167  0.6440 -0.5239 -0.8174
 5469SOL     OW23405   0.538   6.570   0.099  0.3964  0.0636 -0.1249
 5469SOL    HW123406   0.596   6.489   0.105  0.9318  0.4145 -0.5272
 5469SOL    HW223407   0.576   6.633   0.032 -0.3425  0.3868 -0.2436
 5470SOL     OW23408   3.208   5.930   5.038  0.1474 -0.3184  0.4502
 5470SOL    HW123409   3.166   5.843   5.068  1.1808 -0.6530  0.9418
 5470SOL    HW223410   3.233   5.923   4.942 -0.6307 -0.2340  0.2394
 5471SOL     OW23411   2.403   1.517   1.379 -0.2025 -0.8365 -0.0861
 5471SOL    HW123412   2.332   1.503   1.447  0.0817  1.5448  0.7535
 5471SOL    HW223413   2.488   1.473   1.408 -0.5235 -1.1941  0.3047
 5472SOL     OW23414   4.470   1.552   7.197  0.5299  0.6974 -0.2650
 5472SOL    HW123415   4.397   1.594   7.143  0.6772  1.5145  0.1742
 5472SOL    HW223416   4.461   1.452   7.193  0.1740  0.7657 -1.2913
 5473SOL     OW23417   2.863   6.225   2.152  0.3112  0.3776 -0.3207
 5473SOL    HW123418   2.774   6.216   2.109  0.8131 -1.6988 -0.9896
 5473SOL    HW223419   2.932   6.245   2.083  0.6110  0.3344 -0.0365
 5474SOL     OW23420   3.267   0.564   2.906  0.3286  0.2842  0.4258
 5474SOL    HW123421   3.235   0.486   2.960 -0.5997 -1.2292 -2.2705
 5474SOL    HW223422   3.244   0.649   2.954 -0.8747 -1.0048  2.1940
 5475SOL     OW23423   3.163   5.187   3.835 -0.3956  0.3024 -0.1886
 5475SOL    HW123424   3.167   5.087   3.832 -1.1427  0.2414  0.6823
 5475SOL    HW223425   3.084   5.219   3.784 -0.5462  0.4088  0.1086
 5476SOL     OW23426   0.759   5.334   4.093  0.1243 -0.7078  0.0766
 5476SOL    HW123427   0.827   5.403   4.119  0.8602 -1.4639  0.2037
 5476SOL    HW223428   0.672   5.378   4.073  0.6233  0.2711  0.0309
 5477SOL     OW23429   6.347   2.155   6.918 -0.3498  0.1505 -0.7658
 5477SOL    HW123430   6.339   2.092   6.840 -0.2612 -2.2466  1.0916
 5477SOL    HW223431   6.302   2.115   6.998  1.1047  1.7516  0.8995
 5478SOL     OW23432   5.584   3.441   1.061 -0.4295 -0.3427 -0.5291
 5478SOL    HW123433   5.591   3.522   1.002 -0.7238 -0.1788 -0.3413
 5478SOL    HW223434   5.564   3.361   1.004 -0.1360 -0.2825 -0.7159
 5479SOL     OW23435   1.224   5.691   6.621 -0.1370  0.1872  0.6453
 5479SOL    HW123436   1.159   5.683   6.697 -0.8635  2.4991  0.3026
 5479SOL    HW223437   1.317   5.698   6.658 -0.5073  1.5359  1.3810
 5480SOL     OW23438   4.872   2.236   5.346 -1.1204 -1.3784 -0.2100
 5480SOL    HW123439   4.813   2.277   5.415  0.0611 -1.7927  1.0740
 5480SOL    HW223440   4.890   2.140   5.369  1.5000 -0.7731  0.4464
 5481SOL     OW23441   7.142   0.290   6.723 -0.4168 -0.4466  0.4860
 5481SOL    HW123442   7.157   0.222   6.652  1.5883 -0.2437  0.6690
 5481SOL    HW223443   7.080   0.361   6.689 -0.0971 -0.7621 -0.7771
 5482SOL     OW23444   5.795   2.931   2.955 -0.0943 -0.3684  0.4897
 5482SOL    HW123445   5.700   2.948   2.927 -0.3556  0.5271  1.8486
 5482SOL    HW223446   5.849   3.014   2.941  0.3267 -0.6600  0.3705
 5483SOL     OW23447   4.937   3.652   1.602  0.8586 -0.1460  0.0554
 5483SOL    HW123448   4.841   3.641   1.576  1.0422  0.4894 -0.9192
 5483SOL    HW223449   4.994   3.645   1.521  1.7101 -1.2620  0.7305
 5484SOL     OW23450   7.275   5.455   6.817  0.3088  0.1109 -0.5524
 5484SOL    HW123451   7.224   5.526   6.866 -0.4699 -0.4402 -0.5546
 5484SOL    HW223452   7.305   5.490   6.729 -1.7403 -0.1584 -1.3904
 5485SOL     OW23453   6.804   2.123   4.933  0.5564 -0.5187  0.0897
 5485SOL    HW123454   6.877   2.148   4.996 -0.1731  1.5454  0.1752
 5485SOL    HW223455   6.750   2.205   4.911 -0.4588 -1.6053 -1.5865
 5486SOL     OW23456   3.984   0.546   5.412 -0.2602 -0.2127  0.2538
 5486SOL    HW123457   3.896   0.592   5.421 -0.4817 -0.3162 -1.3468
 5486SOL    HW223458   4.058   0.614   5.423 -0.5341  0.0262  0.6614
 5487SOL     OW23459   5.085   0.801   1.678  0.1276  0.4939 -0.2264
 5487SOL    HW123460   5.109   0.737   1.605 -1.3991  0.8265 -1.0640
 5487SOL    HW223461   5.156   0.871   1.686  0.4159  0.3400 -1.2777
 5488SOL     OW23462   4.461   6.053   6.448 -0.2608  0.4555 -0.2873
 5488SOL    HW123463   4.470   5.993   6.528 -0.9790 -0.9277 -1.2268
 5488SOL    HW223464   4.479   6.001   6.365 -0.3148  1.6917 -1.0851
 5489SOL     OW23465   4.314   6.612   4.964  0.0543 -0.1290  0.4207
 5489SOL    HW123466   4.357   6.693   4.924 -0.1764 -0.3155 -0.2167
 5489SOL    HW223467   4.219   6.606   4.932  0.0711 -0.6482  0.4656
 5490SOL     OW23468   1.042   1.539   6.364  0.0947  0.4256 -0.8412
 5490SOL    HW123469   1.116   1.540   6.297  0.0896 -0.9834 -0.8660
 5490SOL    HW223470   0.967   1.597   6.331  0.7558  1.0393 -1.2842
 5491SOL     OW23471   6.618   5.589   4.178  0.2512 -0.4758  0.2865
 5491SOL    HW123472   6.712   5.554   4.180  0.9156  1.1576 -1.0047
 5491SOL    HW223473   6.606   5.656   4.251  0.2039 -0.3849  0.1951
 5492SOL     OW23474   0.107   3.859   4.113 -0.1777  0.5751 -0.4894
 5492SOL    HW123475   0.032   3.894   4.057 -0.3908 -0.4374 -0.8316
 5492SOL    HW223476   0.143   3.775   4.074  2.0069  1.7172 -1.0590
 5493SOL     OW23477   2.075   6.729   0.045  0.2155  0.2549  0.6683
 5493SOL    HW123478   2.006   6.725  -0.027 -1.3499  1.1704  2.0761
 5493SOL    HW223479   2.049   6.669   0.120  1.4060 -0.0547  0.8511
 5494SOL     OW23480   6.344   2.023   4.796 -0.1288 -0.2159 -0.1852
 5494SOL    HW123481   6.311   2.045   4.705 -0.0499  0.8327  0.0351
 5494SOL    HW223482   6.362   2.107   4.847  1.3995 -0.7645  0.2394
 5495SOL     OW23483   2.511   5.367   4.630 -0.0133 -0.1362 -0.5548
 5495SOL    HW123484   2.431   5.307   4.633 -0.3670  0.3494 -0.2489
 5495SOL    HW223485   2.569   5.350   4.710 -0.0960 -0.0951 -0.4866
 5496SOL     OW23486   4.256   6.848   2.520 -0.3841  0.1609  0.4795
 5496SOL    HW123487   4.220   6.783   2.452  0.7513 -0.5722  0.5629
 5496SOL    HW223488   4.325   6.906   2.477 -1.3346  1.2633  0.4297
 5497SOL     OW23489   3.267   5.900   2.092 -0.6761  0.7935  0.1209
 5497SOL    HW123490   3.186   5.913   2.035  0.2033 -1.2805 -1.6772
 5497SOL    HW223491   3.294   5.803   2.090 -0.6069  0.6561  4.0817
 5498SOL     OW23492   6.976   0.290   0.818 -0.0511  0.0593  0.0246
 5498SOL    HW123493   6.966   0.385   0.847 -0.2732 -0.2738  1.0679
 5498SOL    HW223494   6.889   0.242   0.828 -0.0381 -0.1570 -0.8641
 5499SOL     OW23495   7.165   2.358   3.546  0.0313 -0.0835  0.2836
 5499SOL    HW123496   7.239   2.394   3.603 -0.0469  0.1807  0.2197
 5499SOL    HW223497   7.077   2.390   3.582 -0.1656 -1.7063  1.3311
 5500SOL     OW23498   5.917   0.152   2.410 -0.0470 -0.1537 -0.0529
 5500SOL    HW123499   6.002   0.139   2.360 -0.4515  3.0072 -1.6310
 5500SOL    HW223500   5.860   0.070   2.400  2.1876 -1.7673 -0.0640
 5501SOL     OW23501   3.817   6.071   5.284 -0.1684 -0.0473  0.0215
 5501SOL    HW123502   3.734   6.026   5.316  0.2813 -0.2143  0.9864
 5501SOL    HW223503   3.857   6.019   5.208 -0.7439 -0.1631 -0.2019
 5502SOL     OW23504   4.484   1.811   2.775 -0.4125 -0.0923 -0.5197
 5502SOL    HW123505   4.438   1.892   2.812 -1.3215 -1.1713  0.8150
 5502SOL    HW223506   4.425   1.768   2.707  0.0545  0.3542 -1.2038
 5503SOL     OW23507   5.261   3.769   3.208 -0.8223 -0.2248  0.2844
 5503SOL    HW123508   5.195   3.694   3.205 -1.4553  0.3258  0.0852
 5503SOL    HW223509   5.214   3.855   3.187 -0.3510  0.3912  1.6972
 5504SOL     OW23510   2.076   3.607   3.362 -0.0813 -0.5362 -0.5238
 5504SOL    HW123511   1.981   3.629   3.388 -0.2892 -1.0128 -0.8796
 5504SOL    HW223512   2.134   3.611   3.443 -0.1747  0.9991 -0.5053
 5505SOL     OW23513   6.605   4.052   0.437 -0.0437 -0.4650 -0.0381
 5505SOL    HW123514   6.604   3.953   0.440  2.3910 -0.4681  2.0612
 5505SOL    HW223515   6.626   4.088   0.527  3.6291  1.8431 -1.7062
 5506SOL     OW23516   2.366   6.944   2.401  0.5911  0.1555  0.1780
 5506SOL    HW123517   2.350   6.848   2.425  0.7062  0.0665 -0.0945
 5506SOL    HW223518   2.280   6.994   2.403  0.3984 -0.1420 -0.4955
 5507SOL     OW23519   0.510   5.860   0.277 -0.2034  0.2928 -0.2860
 5507SOL    HW123520   0.483   5.833   0.369  0.6190 -2.1839 -0.7226
 5507SOL    HW223521   0.464   5.801   0.210  0.4031  1.0443 -1.3776
 5508SOL     OW23522   0.641   0.978   7.336  0.7127 -0.4942 -0.0479
 5508SOL    HW123523   0.663   0.882   7.316  0.1946 -0.1616 -2.4471
 5508SOL    HW223524   0.544   0.994   7.319  1.2236  0.9307 -1.8725
 5509SOL     OW23525   2.799   0.675   1.595  0.5785 -0.0684 -0.4321
 5509SOL    HW123526   2.813   0.753   1.535 -0.6701  0.6677  0.1889
 5509SOL    HW223527   2.722   0.695   1.657  2.7320 -0.1967  2.3753
 5510SOL     OW23528   2.186   1.665   7.201  0.6298  0.1870 -0.6545
 5510SOL    HW123529   2.186   1.759   7.167 -1.7222  0.0416 -1.1215
 5510SOL    HW223530   2.185   1.602   7.123 -3.6798 -0.1564 -0.4674
 5511SOL     OW23531   6.506   5.931   0.165 -0.1261 -0.1004 -0.0080
 5511SOL    HW123532   6.514   5.839   0.203 -0.2071  0.5990  1.7750
 5511SOL    HW223533   6.597   5.970   0.151 -0.0794 -0.6496 -1.2996
 5512SOL     OW23534   6.033   3.473   6.221  0.1131 -0.7703 -0.3097
 5512SOL    HW123535   6.069   3.480   6.128  2.1998 -2.1973  0.3327
 5512SOL    HW223536   6.066   3.550   6.276 -1.8612  0.5666 -0.9522
 5513SOL     OW23537   3.824   2.892   3.611  0.0029 -0.3383  0.4050
 5513SOL    HW123538   3.808   2.828   3.687 -1.3981 -1.1466 -0.5351
 5513SOL    HW223539   3.778   2.978   3.630 -1.5248 -1.0124 -0.1188
 5514SOL     OW23540   5.959   3.542   3.756  0.1834 -0.1080 -0.4989
 5514SOL    HW123541   6.019   3.619   3.732  2.2714 -0.9596  1.8280
 5514SOL    HW223542   5.884   3.575   3.813  0.5016  0.3548 -0.3414
 5515SOL     OW23543   2.462   5.435   0.732 -0.0086 -0.4288 -0.9804
 5515SOL    HW123544   2.412   5.449   0.646  0.7576  0.6505 -1.2712
 5515SOL    HW223545   2.507   5.520   0.757  0.7451 -1.0786 -0.1273
 5516SOL     OW23546   2.204   4.957   0.399 -0.2596 -0.1155 -0.4586
 5516SOL    HW123547   2.219   4.910   0.486 -0.3876 -0.1071 -0.4310
 5516SOL    HW223548   2.254   4.910   0.326  1.6518  1.1707 -0.0041
 5517SOL     OW23549   6.794   2.012   0.263  0.6168 -0.2710 -0.1479
 5517SOL    HW123550   6.742   2.062   0.332 -0.5700  0.1982 -1.3714
 5517SOL    HW223551   6.741   1.934   0.231 -0.1932  1.3267 -2.8155
 5518SOL     OW23552   3.096   1.148   1.521  0.0877 -0.3716 -0.1984
 5518SOL    HW123553   3.088   1.247   1.514  0.7403 -0.2483  0.6735
 5518SOL    HW223554   3.082   1.106   1.431  0.4487  0.5504 -0.6830
 5519SOL     OW23555   1.808   5.688   0.351 -0.2139 -0.0273  0.4587
 5519SOL    HW123556   1.812   5.701   0.450 -0.1986 -2.1370  0.7557
 5519SOL    HW223557   1.897   5.655   0.318 -0.7162 -0.9620  0.0112
 5520SOL     OW23558   3.370   3.197   1.982  0.5625 -0.3491  0.4036
 5520SOL    HW123559   3.405   3.177   1.891  1.2438  0.5890  0.4499
 5520SOL    HW223560   3.329   3.115   2.021 -0.0410 -0.6672 -0.8767
 5521SOL     OW23561   3.879   4.818   5.084  0.1855  0.5745  0.1134
 5521SOL    HW123562   3.921   4.736   5.047 -1.9649 -0.6686  0.3403
 5521SOL    HW223563   3.860   4.882   5.010 -0.4334 -0.2075 -0.4084
 5522SOL     OW23564   6.986   4.773   4.231  0.0707 -0.0509 -0.0338
 5522SOL    HW123565   6.887   4.771   4.214 -0.1582  0.8012  1.1568
 5522SOL    HW223566   7.033   4.719   4.161 -1.1305  0.5248 -1.2992
 5523SOL     OW23567   1.614   5.248   0.813  0.8308  0.3307 -0.1581
 5523SOL    HW123568   1.697   5.205   0.849 -1.2685 -2.3273  1.6653
 5523SOL    HW223569   1.624   5.261   0.715  3.1995 -0.4202 -0.0658
 5524SOL     OW23570   4.340   3.705   5.494  0.6372  0.3868  0.3108
 5524SOL    HW123571   4.320   3.609   5.475  1.8702  0.2100 -0.1272
 5524SOL    HW223572   4.255   3.753   5.515 -0.4686  0.0085 -3.0449
 5525SOL     OW23573   1.755   1.006   1.896  0.2122 -0.0354 -0.3887
 5525SOL    HW123574   1.730   1.029   1.990 -0.4157  0.6212 -0.7188
 5525SOL    HW223575   1.682   1.033   1.834  1.2056  0.7969 -1.2207
 5526SOL     OW23576   1.305   2.820   5.437 -0.0849  0.1723 -0.2494
 5526SOL    HW123577   1.332   2.860   5.349  0.6954  1.6208  0.6125
 5526SOL    HW223578   1.336   2.880   5.511 -0.3658 -1.2307  1.0335
 5527SOL     OW23579   3.749   6.573   5.462 -0.0815 -0.0529  0.1238
 5527SOL    HW123580   3.664   6.611   5.498  0.3425  0.2349  0.8390
 5527SOL    HW223581   3.810   6.549   5.538  0.1967 -0.9074 -0.3598
 5528SOL     OW23582   3.543   4.702   3.880 -0.3331 -0.2157 -0.5479
 5528SOL    HW123583   3.515   4.778   3.938 -1.5310 -0.9009 -0.2017
 5528SOL    HW223584   3.463   4.664   3.834  0.7774  1.0781 -3.5974
 5529SOL     OW23585   2.382   4.297   4.174 -0.5531 -0.4271  0.6597
 5529SOL    HW123586   2.398   4.286   4.076  1.8456 -1.0059  1.0848
 5529SOL    HW223587   2.304   4.241   4.201 -2.6696  1.4796 -1.2859
 5530SOL     OW23588   6.501   2.685   0.460 -0.4230 -0.2241  0.2586
 5530SOL    HW123589   6.457   2.604   0.421 -0.9542 -0.0053  0.4071
 5530SOL    HW223590   6.589   2.700   0.414 -1.4571  0.5827 -1.5166
 5531SOL     OW23591   3.840   0.236   2.544  0.5007  0.0564 -0.3111
 5531SOL    HW123592   3.938   0.247   2.529  0.6022 -0.3226  0.0777
 5531SOL    HW223593   3.822   0.225   2.641  0.0044  0.7740 -0.3209
 5532SOL     OW23594   3.083   6.523   6.300  0.3158 -0.1006  1.0457
 5532SOL    HW123595   2.983   6.533   6.296  0.2612 -1.3800 -2.1074
 5532SOL    HW223596   3.107   6.434   6.339  0.2671  0.5980  2.7025
 5533SOL     OW23597   3.202   5.599   3.002 -0.6306  0.3288  0.2298
 5533SOL    HW123598   3.112   5.626   2.967 -2.3400 -1.1479  3.2056
 5533SOL    HW223599   3.273   5.626   2.937 -3.3602 -0.1423 -3.1045
 5534SOL     OW23600   3.571   3.369   1.778  0.5837  0.4590 -0.1958
 5534SOL    HW123601   3.533   3.277   1.766 -0.0380  0.7855 -0.8331
 5534SOL    HW223602   3.657   3.376   1.729 -0.7562  1.0493 -2.5444
 5535SOL     OW23603   2.247   1.207   5.477  0.5288  0.1401 -0.2405
 5535SOL    HW123604   2.249   1.254   5.389  0.1934  0.4860 -0.0632
 5535SOL    HW223605   2.297   1.120   5.469 -0.3780 -0.3172 -1.0480
 5536SOL     OW23606   2.579   4.121   0.820  0.2347  0.1385 -0.2666
 5536SOL    HW123607   2.498   4.076   0.857 -0.2978  0.5547 -0.9160
 5536SOL    HW223608   2.645   4.053   0.788 -0.3555 -0.1819 -0.8012
 5537SOL     OW23609   2.213   1.978   4.682 -0.0767  0.5111 -0.5698
 5537SOL    HW123610   2.122   1.946   4.709 -0.1653  0.6164 -0.7390
 5537SOL    HW223611   2.228   2.070   4.717 -0.3438  0.7988 -1.1993
 5538SOL     OW23612   1.126   5.885   4.555  0.0648  0.4055 -0.2967
 5538SOL    HW123613   1.156   5.831   4.633 -2.3546  0.0275  0.4079
 5538SOL    HW223614   1.193   5.877   4.481  2.4705  0.9249  1.7759
 5539SOL     OW23615   2.925   0.511   3.304  0.2733  0.2489  0.3790
 5539SOL    HW123616   2.866   0.560   3.367 -1.1859  0.2635 -0.9624
 5539SOL    HW223617   2.991   0.456   3.356 -3.1788 -2.5395  2.0124
 5540SOL     OW23618   4.787   3.605   5.937 -0.3117  0.0774  0.1504
 5540SOL    HW123619   4.689   3.619   5.951  0.1308 -0.4377  4.2040
 5540SOL    HW223620   4.808   3.508   5.941  0.7531  0.3620  2.5956
 5541SOL     OW23621   1.348   5.443   4.635 -0.0841 -0.2425 -0.2200
 5541SOL    HW123622   1.312   5.446   4.729 -1.8150 -0.9041 -0.8402
 5541SOL    HW223623   1.332   5.531   4.591 -1.0758 -0.5670 -0.5270
 5542SOL     OW23624   5.845   6.088   3.412  0.2378  0.2067 -0.4145
 5542SOL    HW123625   5.861   6.060   3.507  0.1640 -1.9418 -0.9982
 5542SOL    HW223626   5.746   6.094   3.396  0.2563  0.9772 -0.2442
 5543SOL     OW23627   5.294   3.589   6.201 -0.2899 -0.1739  0.0124
 5543SOL    HW123628   5.307   3.648   6.281  0.9357 -0.5827  0.1150
 5543SOL    HW223629   5.307   3.642   6.117 -1.4183  0.2171  0.0714
 5544SOL     OW23630   0.136   6.141   0.192  0.4971  0.4474 -0.5596
 5544SOL    HW123631   0.230   6.164   0.219  0.6396 -0.9238  0.1862
 5544SOL    HW223632   0.073   6.166   0.265  0.6852 -1.6668  0.3790
 5545SOL     OW23633   6.771   7.256   1.519 -0.3964 -0.0112  0.4972
 5545SOL    HW123634   6.808   7.345   1.545 -1.0608  0.9546 -1.7621
 5545SOL    HW223635   6.672   7.255   1.533 -0.5513  0.0117 -0.5413
 5546SOL     OW23636   0.232   3.218   4.108 -0.0533 -0.5806 -0.4954
 5546SOL    HW123637   0.140   3.193   4.138  0.3581  0.6031  1.8360
 5546SOL    HW223638   0.284   3.254   4.185  2.8250 -2.4417 -1.4722
 5547SOL     OW23639   5.009   0.667   0.145  0.3429  0.2049 -0.2942
 5547SOL    HW123640   5.076   0.593   0.148 -1.1766 -1.1710 -0.4445
 5547SOL    HW223641   4.922   0.634   0.109 -1.4584  1.1717  2.9221
 5548SOL     OW23642   0.445   3.055   2.597 -0.0924  0.2066  0.3801
 5548SOL    HW123643   0.524   3.083   2.543 -0.8425 -1.2630 -1.5034
 5548SOL    HW223644   0.476   3.014   2.683  1.1281  1.1475  0.4059
 5549SOL     OW23645   3.994   6.744   3.680 -0.1908 -0.4228 -0.4077
 5549SOL    HW123646   4.011   6.797   3.762  0.4326 -0.7159 -0.3458
 5549SOL    HW223647   4.081   6.717   3.638 -0.4999 -0.9455 -0.7261
 5550SOL     OW23648   4.014   6.392   3.315 -0.0062 -0.1326  0.2237
 5550SOL    HW123649   3.995   6.301   3.279  1.1575 -0.2197 -0.1779
 5550SOL    HW223650   3.940   6.454   3.289 -1.0479 -1.0571  0.9068
 5551SOL     OW23651   1.884   4.928   1.961 -0.7010 -0.1522 -0.4858
 5551SOL    HW123652   1.946   5.003   1.938 -0.4287 -0.2585 -0.1030
 5551SOL    HW223653   1.869   4.925   2.060 -1.5111  0.0241 -0.5983
 5552SOL     OW23654   4.164   7.034   2.704  0.8050  0.3150 -0.4791
 5552SOL    HW123655   4.152   7.103   2.633 -0.9223  0.9948  0.4304
 5552SOL    HW223656   4.149   6.943   2.665 -3.1292  0.8514 -0.4374
 5553SOL     OW23657   4.393   0.745   5.108 -0.3275 -0.1349  0.3807
 5553SOL    HW123658   4.334   0.825   5.103 -0.6462 -0.4536 -1.0563
 5553SOL    HW223659   4.351   0.669   5.059  0.4301 -0.9002  0.8986
 5554SOL     OW23660   5.607   0.459   7.134  0.6286  0.6177 -0.2731
 5554SOL    HW123661   5.667   0.504   7.068 -0.2781  1.1350 -0.7555
 5554SOL    HW223662   5.539   0.525   7.168 -0.0928 -0.1338 -0.2446
 5555SOL     OW23663   7.343   0.145   6.009 -1.0176 -1.0012  0.4838
 5555SOL    HW123664   7.399   0.070   5.972 -2.7391 -2.1231  0.1173
 5555SOL    HW223665   7.320   0.209   5.935  2.0372  0.9835  1.1363
 5556SOL     OW23666   4.011   6.410   6.291 -0.9954  0.1422 -0.1379
 5556SOL    HW123667   4.067   6.328   6.303 -0.5874  0.4692  0.2214
 5556SOL    HW223668   3.914   6.386   6.300 -0.9266 -0.4597 -0.9464
 5557SOL     OW23669   4.997   0.936   2.253 -0.7153 -0.1228 -0.5056
 5557SOL    HW123670   4.969   1.031   2.271  0.3763  0.4827 -1.8543
 5557SOL    HW223671   5.091   0.922   2.283 -1.4938 -1.3383  1.4200
 5558SOL     OW23672   4.172   3.543   4.736  0.5414 -0.5807 -0.2927
 5558SOL    HW123673   4.248   3.478   4.743  0.3525 -0.6413  1.4986
 5558SOL    HW223674   4.189   3.621   4.796 -0.7278 -0.5139 -0.0054
 5559SOL     OW23675   5.054   3.485   7.013 -0.3327  0.1117  0.6554
 5559SOL    HW123676   5.148   3.515   7.031  0.0183 -0.3529 -0.3580
 5559SOL    HW223677   5.018   3.533   6.933 -0.1622 -1.3089 -0.3017
 5560SOL     OW23678   7.179   2.555   1.561 -0.5761  0.4658 -0.0815
 5560SOL    HW123679   7.184   2.457   1.541  0.9911  0.3539  0.7603
 5560SOL    HW223680   7.146   2.604   1.480  1.9226 -0.3977 -1.7098
 5561SOL     OW23681   5.025   1.537   4.549  0.5282 -0.0902 -0.4998
 5561SOL    HW123682   5.071   1.459   4.507  1.3415 -0.5799  1.2457
 5561SOL    HW223683   4.943   1.506   4.597 -0.0109  0.3608 -1.1181
 5562SOL     OW23684   0.079   2.460   2.330 -0.1388 -0.3152 -0.4078
 5562SOL    HW123685   0.047   2.514   2.252 -0.0293  0.1923 -0.1043
 5562SOL    HW223686   0.175   2.481   2.348 -0.0837 -0.6470 -0.3209
 5563SOL     OW23687   4.891   5.163   6.718 -0.1192  0.4086 -0.3797
 5563SOL    HW123688   4.948   5.192   6.795  0.1365 -1.1138  0.0223
 5563SOL    HW223689   4.944   5.169   6.633 -0.1910  1.4659 -0.3474
 5564SOL     OW23690   3.541   3.329   6.259  0.2087  0.3364 -0.1971
 5564SOL    HW123691   3.450   3.294   6.233  1.0540 -0.2429 -2.5606
 5564SOL    HW223692   3.537   3.366   6.351 -2.0582 -1.1039  0.3413
 5565SOL     OW23693   4.531   3.996   4.415 -0.9248  0.2799  0.0430
 5565SOL    HW123694   4.470   4.036   4.483 -0.8274 -0.2141  0.4226
 5565SOL    HW223695   4.616   3.967   4.459 -0.1296  1.5818 -0.5999
 5566SOL     OW23696   4.175   4.313   0.110 -0.0372 -0.1379 -0.0809
 5566SOL    HW123697   4.172   4.410   0.132 -0.0753  0.0691 -0.9606
 5566SOL    HW223698   4.155   4.259   0.192  1.2346  0.5579  0.6902
 5567SOL     OW23699   3.505   2.775   2.155 -0.2024 -0.1476  0.0295
 5567SOL    HW123700   3.502   2.754   2.253 -0.7804 -1.6341 -0.2910
 5567SOL    HW223701   3.428   2.835   2.132 -0.3081 -0.1300  0.4216
 5568SOL     OW23702   4.545   0.233   1.686 -0.4223 -0.6789 -0.3813
 5568SOL    HW123703   4.492   0.276   1.613  1.3850 -0.8273 -1.8226
 5568SOL    HW223704   4.620   0.180   1.646  0.3395 -1.1260  1.5787
 5569SOL     OW23705   4.321   5.437   2.401  0.8764 -0.5259  0.1805
 5569SOL    HW123706   4.309   5.497   2.481 -1.3502 -1.7949  0.8298
 5569SOL    HW223707   4.248   5.454   2.335  2.1140 -0.2355 -1.1288
 5570SOL     OW23708   3.925   2.994   5.303 -0.1910  0.5279 -0.0134
 5570SOL    HW123709   3.832   2.975   5.271  0.8060 -0.4800 -2.4193
 5570SOL    HW223710   3.943   2.942   5.386 -0.9063 -1.3709 -1.0190
 5571SOL     OW23711   0.964   2.999   5.882 -0.8945 -0.0261  0.1602
 5571SOL    HW123712   1.018   3.080   5.906  1.4453 -0.6460 -2.7011
 5571SOL    HW223713   0.945   2.946   5.964  0.9384  1.4095  1.5511
 5572SOL     OW23714   4.059   0.890   7.107 -0.1952 -0.0196 -0.1202
 5572SOL    HW123715   4.024   0.802   7.139  0.5344 -0.2873 -0.0585
 5572SOL    HW223716   4.052   0.895   7.008 -1.2592  0.2967 -0.0394
 5573SOL     OW23717   2.172   5.054   2.238  0.8188  0.9555 -0.3285
 5573SOL    HW123718   2.142   5.124   2.173  0.5984  2.1981  1.0676
 5573SOL    HW223719   2.092   5.002   2.270  0.9399  0.2738 -1.1033
 5574SOL     OW23720   3.341   0.696   0.279 -0.3433  0.1578 -0.2162
 5574SOL    HW123721   3.264   0.663   0.226 -1.1167  1.2376  0.2241
 5574SOL    HW223722   3.390   0.767   0.228  0.5412 -0.7153 -0.6126
 5575SOL     OW23723   1.149   6.508   5.704 -0.2706  0.4656  0.3944
 5575SOL    HW123724   1.111   6.495   5.613 -0.1104 -0.0768  0.4057
 5575SOL    HW223725   1.234   6.456   5.713  0.8000  2.1374  0.1654
 5576SOL     OW23726   2.354   1.898   0.102  0.1052  0.4352  0.3631
 5576SOL    HW123727   2.298   1.914   0.021 -0.6955  1.0903  1.0427
 5576SOL    HW223728   2.363   1.800   0.118 -0.1304  0.3141 -0.2416
 5577SOL     OW23729   5.931   7.129   6.979  0.4011 -0.9549  0.0082
 5577SOL    HW123730   5.976   7.074   6.908  0.5762 -1.2985  0.3795
 5577SOL    HW223731   5.982   7.214   6.993  0.6490 -1.1085  0.0615
 5578SOL     OW23732   2.904   4.478   7.088 -0.0201  0.4144  0.3817
 5578SOL    HW123733   2.967   4.544   7.048 -0.4573  0.8170  0.3566
 5578SOL    HW223734   2.950   4.428   7.161  0.6057  0.0769 -0.2404
 5579SOL     OW23735   2.559   5.483   3.511 -0.1550 -0.3174  0.0118
 5579SOL    HW123736   2.583   5.404   3.454  0.6301 -0.3802  0.4229
 5579SOL    HW223737   2.554   5.455   3.607  0.5360  0.2064  0.2117
 5580SOL     OW23738   0.201   4.250   7.278  0.0577 -0.6197  0.1109
 5580SOL    HW123739   0.183   4.231   7.182  1.3375  0.7824 -0.4274
 5580SOL    HW223740   0.293   4.288   7.288 -1.3817  2.7450  1.4007
 5581SOL     OW23741   1.765   7.052   7.116  0.2276  0.4437 -0.6325
 5581SOL    HW123742   1.782   7.046   7.214  0.8439  1.1288 -0.6931
 5581SOL    HW223743   1.666   7.062   7.100 -0.0363 -1.3510 -0.1700
 5582SOL     OW23744   3.859   5.637   1.781 -0.0849 -0.0697  0.1176
 5582SOL    HW123745   3.885   5.661   1.688  0.6946  0.3224  0.4355
 5582SOL    HW223746   3.785   5.569   1.779 -1.8077  1.7699 -0.7950
 5583SOL     OW23747   1.781   3.594   3.955 -0.3741  0.3416 -0.4524
 5583SOL    HW123748   1.804   3.691   3.953 -0.0517  0.2497 -1.8022
 5583SOL    HW223749   1.697   3.579   3.902 -0.0921 -0.1959 -0.7515
 5584SOL     OW23750   1.361   0.491   5.818  0.4330  0.0483 -0.6243
 5584SOL    HW123751   1.449   0.534   5.838 -0.1483  1.2535 -0.6144
 5584SOL    HW223752   1.355   0.472   5.720  0.4771  0.5053 -0.7208
 5585SOL     OW23753   3.135   4.479   0.176 -0.2165 -0.0937 -0.2518
 5585SOL    HW123754   3.186   4.406   0.132  2.6677  1.9017 -0.3663
 5585SOL    HW223755   3.144   4.471   0.275 -2.7678 -1.8281 -0.1128
 5586SOL     OW23756   6.224   3.532   2.033  0.3029 -0.1055  0.0472
 5586SOL    HW123757   6.230   3.433   2.033 -0.6528 -0.1848 -1.9769
 5586SOL    HW223758   6.136   3.561   1.995  1.5218  1.5263 -1.6388
 5587SOL     OW23759   7.316   2.548   4.118 -0.0015 -0.1808  0.2420
 5587SOL    HW123760   7.249   2.576   4.188 -0.4279  0.5968 -0.4737
 5587SOL    HW223761   7.387   2.617   4.110  0.8296 -0.9469  0.9060
 5588SOL     OW23762   3.295   4.087   1.807 -0.0897 -0.3077 -0.2005
 5588SOL    HW123763   3.361   4.040   1.749 -1.4403 -0.1542 -1.8795
 5588SOL    HW223764   3.215   4.028   1.822 -0.1504  0.0063  0.7452
 5589SOL     OW23765   4.367   3.463   5.057 -0.4917  0.7941  0.2596
 5589SOL    HW123766   4.276   3.480   5.093  0.2132  1.7649  1.6615
 5589SOL    HW223767   4.435   3.487   5.127  0.8315  0.2860 -0.8348
 5590SOL     OW23768   3.962   2.109   4.356  0.1742  0.4973  0.1848
 5590SOL    HW123769   3.865   2.129   4.372  0.0794  0.8381 -0.7898
 5590SOL    HW223770   3.988   2.027   4.406 -1.2014 -0.9510 -1.4280
 5591SOL     OW23771   1.267   0.839   2.523 -0.0071 -0.1279  0.5626
 5591SOL    HW123772   1.317   0.766   2.569  1.7006 -0.5385 -1.8440
 5591SOL    HW223773   1.312   0.927   2.541  0.2129 -0.1817  0.2598
 5592SOL     OW23774   2.564   4.092   2.518  0.3930 -0.3198  0.2139
 5592SOL    HW123775   2.553   4.020   2.449  2.6497 -0.6547  0.1370
 5592SOL    HW223776   2.582   4.179   2.472 -0.9272  0.0237  0.3370
 5593SOL     OW23777   6.440   2.883   4.486 -0.6545  0.5899 -0.1498
 5593SOL    HW123778   6.372   2.810   4.487 -0.5266  0.4643  1.2124
 5593SOL    HW223779   6.532   2.844   4.477 -0.6936  0.6913 -0.9976
 5594SOL     OW23780   3.923   5.745   3.232 -0.4683 -0.2256 -0.5984
 5594SOL    HW123781   3.985   5.795   3.172  0.2761  1.2029  1.3340
 5594SOL    HW223782   3.906   5.798   3.315 -0.9300 -2.4659  0.7809
 5595SOL     OW23783   1.691   7.191   6.508  0.7375  0.7237 -0.6011
 5595SOL    HW123784   1.783   7.215   6.537  0.2846  1.6427  0.0717
 5595SOL    HW223785   1.658   7.259   6.442 -0.9783  2.6658  2.1604
 5596SOL     OW23786   0.299   3.386   3.580  0.7498  0.0925  0.7659
 5596SOL    HW123787   0.372   3.318   3.590  1.5833  0.7505 -0.6553
 5596SOL    HW223788   0.254   3.374   3.492 -0.7327 -0.1702  1.5566
 5597SOL     OW23789   3.976   5.043   2.691  0.0325  0.0775 -0.5659
 5597SOL    HW123790   3.980   5.096   2.776 -0.8741 -0.5195 -0.1562
 5597SOL    HW223791   3.882   5.020   2.670  0.4488 -1.5975 -0.6232
 5598SOL     OW23792   6.118   0.555   3.872  0.4166 -0.0731  0.3859
 5598SOL    HW123793   6.021   0.563   3.893 -0.2176 -2.6118 -1.3039
 5598SOL    HW223794   6.169   0.629   3.917 -2.3258  1.5539  0.8956
 5599SOL     OW23795   4.520   0.514   3.407  0.0441  0.2079 -0.2615
 5599SOL    HW123796   4.583   0.503   3.484 -0.3008  0.7822  0.1061
 5599SOL    HW223797   4.550   0.457   3.331 -0.2874 -1.2814  0.7170
 5600SOL     OW23798   4.291   0.093   3.002 -0.1823 -0.6558  0.3146
 5600SOL    HW123799   4.345   0.176   3.019  0.8313 -1.5162  1.4018
 5600SOL    HW223800   4.204   0.118   2.960  0.8073  0.8122 -0.9462
 5601SOL     OW23801   5.267   2.835   6.056  0.0314 -0.2398 -0.3291
 5601SOL    HW123802   5.323   2.758   6.086 -0.8988 -0.2291  1.4864
 5601SOL    HW223803   5.321   2.919   6.060 -0.0458 -0.2454  1.2988
 5602SOL     OW23804   6.239   1.854   1.767  0.2161 -0.2607  0.4228
 5602SOL    HW123805   6.328   1.849   1.814  0.0918  2.3010  0.9961
 5602SOL    HW223806   6.169   1.884   1.832 -0.5274  0.4609 -0.7061
 5603SOL     OW23807   3.599   5.650   5.228 -0.0495 -0.3056  0.0689
 5603SOL    HW123808   3.545   5.734   5.231 -1.5643 -1.1282 -2.3068
 5603SOL    HW223809   3.694   5.670   5.253 -0.1275  2.3353 -1.5117
 5604SOL     OW23810   5.666   6.102   2.344 -0.2134 -0.0901  0.1015
 5604SOL    HW123811   5.662   6.198   2.317 -1.5955 -0.6948 -1.8847
 5604SOL    HW223812   5.740   6.055   2.295  0.1908 -0.1649  0.7592
 5605SOL     OW23813   1.031   1.692   1.810  0.3629 -0.0716 -0.3485
 5605SOL    HW123814   1.103   1.627   1.784  0.4499  0.7124 -2.0925
 5605SOL    HW223815   1.067   1.785   1.804 -1.0363  0.3721 -1.9828
 5606SOL     OW23816   1.012   1.527   2.064  0.1764 -0.0174 -0.1482
 5606SOL    HW123817   1.075   1.567   2.130  1.3340 -2.4794  0.2884
 5606SOL    HW223818   0.992   1.594   1.992  2.1774  1.2752  0.4686
 5607SOL     OW23819   4.852   5.790   4.084  0.2509  0.2566 -0.1844
 5607SOL    HW123820   4.872   5.871   4.140  0.6753  1.4421 -2.0058
 5607SOL    HW223821   4.913   5.715   4.109  0.3387  0.7216  1.0223
 5608SOL     OW23822   1.809   4.369   4.667 -0.3927  0.1889 -0.1488
 5608SOL    HW123823   1.893   4.408   4.630  0.0463 -0.9376 -0.3450
 5608SOL    HW223824   1.786   4.416   4.753 -0.7779  1.9985 -1.2234
 5609SOL     OW23825   5.165   5.901   4.433 -0.0116  0.0563 -0.1783
 5609SOL    HW123826   5.162   5.853   4.346  2.8713 -1.0032  0.2587
 5609SOL    HW223827   5.260   5.928   4.453 -0.7969  1.2690  2.0998
 5610SOL     OW23828   6.150   6.646   4.327  0.6865  0.1278  0.3560
 5610SOL    HW123829   6.179   6.645   4.231 -0.0798 -0.0648  0.1217
 5610SOL    HW223830   6.098   6.729   4.345  1.0491  0.2871  0.6753
 5611SOL     OW23831   1.396   7.025   6.078 -0.2492  0.2870 -0.0216
 5611SOL    HW123832   1.443   7.106   6.042  0.9713 -0.3044  0.2025
 5611SOL    HW223833   1.463   6.965   6.121 -0.8725 -1.6560 -1.6852
 5612SOL     OW23834   6.295   3.793   2.019  0.6136 -0.0777  0.3446
 5612SOL    HW123835   6.273   3.696   2.030 -2.6898  0.5536 -0.1765
 5612SOL    HW223836   6.330   3.809   1.926  0.1691 -0.6250  0.0793
 5613SOL     OW23837   2.503   5.908   4.335 -0.0314  0.0948  0.0421
 5613SOL    HW123838   2.564   5.895   4.257 -0.7202  0.2981 -0.5389
 5613SOL    HW223839   2.417   5.860   4.318  0.0214 -0.3043  0.9147
 5614SOL     OW23840   0.772   4.376   5.847  0.5236 -0.0532  0.0009
 5614SOL    HW123841   0.818   4.402   5.932  0.4786  0.2268 -0.0585
 5614SOL    HW223842   0.764   4.277   5.842  2.0987 -0.1651 -0.4949
 5615SOL     OW23843   4.264   2.724   3.537  0.1792 -1.1142  0.0599
 5615SOL    HW123844   4.175   2.714   3.491  0.2165 -0.4575 -0.1727
 5615SOL    HW223845   4.310   2.636   3.542 -0.4388 -1.4367  0.0758
 5616SOL     OW23846   1.736   3.454   4.999 -0.0924 -0.0905 -0.1309
 5616SOL    HW123847   1.832   3.456   5.029  0.1709 -0.1047 -0.9692
 5616SOL    HW223848   1.694   3.368   5.028 -0.0788  0.2486  0.9257
 5617SOL     OW23849   3.816   0.082   1.597  0.6946 -0.3449  0.1317
 5617SOL    HW123850   3.816  -0.015   1.575  0.0668 -0.5110  0.8383
 5617SOL    HW223851   3.882   0.100   1.670  1.0366 -0.1805 -0.2104
 5618SOL     OW23852   5.625   6.624   1.376 -0.2707  0.3868  0.0298
 5618SOL    HW123853   5.559   6.695   1.402  0.1502  0.8980 -0.2920
 5618SOL    HW223854   5.587   6.571   1.300 -0.4409  0.4831  0.0458
 5619SOL     OW23855   5.415   0.440   1.648 -0.0273 -0.4464  0.5133
 5619SOL    HW123856   5.328   0.481   1.619  0.2523 -0.9831 -1.1111
 5619SOL    HW223857   5.491   0.487   1.604  0.6107  0.7624  2.8021
 5620SOL     OW23858   2.125   3.592   2.009  0.4689  0.4951 -0.0744
 5620SOL    HW123859   2.091   3.504   1.977 -1.1477  1.9867 -2.5675
 5620SOL    HW223860   2.221   3.601   1.985  0.2727  0.0035 -1.0432
 5621SOL     OW23861   1.864   0.980   6.948 -0.0748  0.7073 -0.0596
 5621SOL    HW123862   1.792   0.955   7.013  1.0165  0.8870  1.2534
 5621SOL    HW223863   1.898   0.898   6.902 -0.3744  0.4878  0.1152
 5622SOL     OW23864   2.625   5.616   5.363 -0.4482  0.0716 -0.1870
 5622SOL    HW123865   2.707   5.663   5.396  0.1787 -1.4071  0.3564
 5622SOL    HW223866   2.584   5.563   5.437 -0.4627 -1.2221 -1.1067
 5623SOL     OW23867   5.978   2.437   7.342  0.1618 -0.1879 -0.2917
 5623SOL    HW123868   6.051   2.505   7.350  0.8527 -0.9450 -0.1314
 5623SOL    HW223869   5.945   2.434   7.247 -0.2069  0.7153 -0.1923
 5624SOL     OW23870   3.600   2.923   3.054 -0.4360  0.6159 -0.0558
 5624SOL    HW123871   3.509   2.889   3.079 -0.5300  0.1114 -1.0551
 5624SOL    HW223872   3.603   2.939   2.956  1.0568 -0.9299 -0.2872
 5625SOL     OW23873   1.115   5.997   6.209  0.6856  0.1130  0.3713
 5625SOL    HW123874   1.041   6.064   6.204  1.4125  0.8759 -0.3073
 5625SOL    HW223875   1.139   5.982   6.305  0.2508  0.5248  0.5490
 5626SOL     OW23876   0.010   3.381   0.567 -0.0724  0.1584 -0.3008
 5626SOL    HW123877   0.062   3.310   0.521 -0.0356 -0.3030  0.4515
 5626SOL    HW223878   0.073   3.444   0.613 -0.1867 -0.7555  1.1352
 5627SOL     OW23879   1.333   4.682   4.106 -0.3497  0.5431 -0.4108
 5627SOL    HW123880   1.279   4.766   4.106 -0.9784  0.1498 -1.0786
 5627SOL    HW223881   1.338   4.647   4.012 -2.0193 -1.3905  0.1987
 5628SOL     OW23882   4.883   3.548   6.420  0.4497 -0.9356  0.4607
 5628SOL    HW123883   4.801   3.500   6.389  0.0009  0.4328 -0.4786
 5628SOL    HW223884   4.869   3.580   6.514 -1.2662  1.8873 -0.7081
 5629SOL     OW23885   1.585   2.800   0.428  0.0649 -0.1575 -0.0644
 5629SOL    HW123886   1.520   2.737   0.386 -1.0211  0.5214  0.5647
 5629SOL    HW223887   1.543   2.843   0.507  1.1898  0.5143  0.1810
 5630SOL     OW23888   5.147   4.062   0.861  0.4164  0.1389  0.3919
 5630SOL    HW123889   5.198   4.057   0.775 -0.9541 -1.9674 -0.3317
 5630SOL    HW223890   5.210   4.046   0.937  1.3149  0.2038 -0.3195
 5631SOL     OW23891   4.160   0.349   0.799 -0.4181 -0.2301 -0.3176
 5631SOL    HW123892   4.062   0.334   0.791 -0.4245  0.0375 -0.7930
 5631SOL    HW223893   4.204   0.326   0.713 -0.2166  0.7853 -0.4938
 5632SOL     OW23894   4.475   3.484   7.277 -0.1345  0.3045 -0.1692
 5632SOL    HW123895   4.474   3.554   7.205  0.0908 -1.2574 -1.7163
 5632SOL    HW223896   4.410   3.412   7.255 -0.1590 -0.1351  1.2801
 5633SOL     OW23897   0.456   5.027   2.237  0.7537 -0.1739 -0.4784
 5633SOL    HW123898   0.409   4.982   2.313 -0.3106  1.8521  0.1136
 5633SOL    HW223899   0.454   4.968   2.157 -1.6477 -0.7115 -0.0690
 5634SOL     OW23900   1.489   0.467   0.851 -0.7997 -0.3761  0.3918
 5634SOL    HW123901   1.409   0.445   0.907  0.1259  0.4040  2.0433
 5634SOL    HW223902   1.503   0.566   0.848  1.0291 -0.5834  1.4310
 5635SOL     OW23903   5.802   6.850   1.978 -0.2605  0.0201  0.3136
 5635SOL    HW123904   5.883   6.894   2.017  0.2521 -0.8331  0.2258
 5635SOL    HW223905   5.782   6.765   2.028 -1.6063  0.6504  0.8723
 5636SOL     OW23906   1.200   3.228   2.581  0.6396  0.1029 -0.4117
 5636SOL    HW123907   1.103   3.235   2.605  0.3142 -1.4413 -1.1597
 5636SOL    HW223908   1.249   3.308   2.614 -0.8696  0.8292  0.1079
 5637SOL     OW23909   1.817   6.619   5.893  0.4060 -0.1831 -0.0687
 5637SOL    HW123910   1.753   6.658   5.827  1.1403 -0.8379 -1.1842
 5637SOL    HW223911   1.773   6.612   5.982 -0.7018  0.4120 -0.5609
 5638SOL     OW23912   6.934   5.236   4.393  0.3649 -0.2812 -0.0578
 5638SOL    HW123913   6.982   5.250   4.307  1.8925  2.3375  1.1466
 5638SOL    HW223914   6.859   5.302   4.401  0.3507 -0.3818  0.6923
 5639SOL     OW23915   2.502   1.341   5.069  0.5715  0.0996 -0.3388
 5639SOL    HW123916   2.417   1.293   5.092 -0.2054  0.8862 -1.5065
 5639SOL    HW223917   2.553   1.288   5.001  1.0221 -0.3764  0.3683
 5640SOL     OW23918   5.923   4.961   0.262 -0.4979  0.8436  0.0980
 5640SOL    HW123919   5.832   4.979   0.299 -0.8727 -1.0411  0.1651
 5640SOL    HW223920   5.915   4.919   0.171  0.3193  1.4933 -0.2816
 5641SOL     OW23921   0.402   5.174   4.013 -0.3113  0.2109 -0.1442
 5641SOL    HW123922   0.449   5.086   4.026  0.0166  0.1600 -1.6309
 5641SOL    HW223923   0.305   5.161   4.031 -0.4997 -0.8167 -1.7850
 5642SOL     OW23924   0.084   6.971   6.815 -0.0013  0.2085 -0.2840
 5642SOL    HW123925   0.109   7.063   6.787  0.5024  0.2534  0.3035
 5642SOL    HW223926   0.058   6.918   6.734 -1.8783  1.3416 -0.4297
 5643SOL     OW23927   2.020   1.669   0.867  0.5731 -0.2802  0.0090
 5643SOL    HW123928   1.979   1.759   0.883  1.6485  0.4161 -1.0654
 5643SOL    HW223929   1.988   1.633   0.779  2.0969  0.2088 -0.7765
 5644SOL     OW23930   3.114   4.442   3.204 -0.2229  0.6188 -0.5992
 5644SOL    HW123931   3.085   4.347   3.220  0.2588  0.5103 -0.3329
 5644SOL    HW223932   3.148   4.451   3.111  0.4930  0.3234 -0.3754
 5645SOL     OW23933   4.902   0.054   0.606 -0.1490  0.2381 -0.3994
 5645SOL    HW123934   4.864   0.138   0.644 -1.9263 -1.1069  0.8531
 5645SOL    HW223935   4.835   0.011   0.546  0.5712 -0.5498 -0.6538
 5646SOL     OW23936   1.130   4.935   0.219  0.4501 -0.2172 -1.2783
 5646SOL    HW123937   1.040   4.891   0.215  0.2819 -0.2344  1.5435
 5646SOL    HW223938   1.202   4.867   0.205  0.0776 -0.4855 -1.9297
 5647SOL     OW23939   2.497   0.688   3.289 -0.7003  0.2012 -0.0923
 5647SOL    HW123940   2.486   0.642   3.377 -0.8812  0.2694 -0.0796
 5647SOL    HW223941   2.415   0.675   3.234 -0.0835 -0.9639 -0.7711
 5648SOL     OW23942   4.311   0.941   0.079 -0.5573  0.0348 -0.0039
 5648SOL    HW123943   4.307   0.944   0.179 -1.0604 -0.1506 -0.0141
 5648SOL    HW223944   4.404   0.920   0.050  0.6820  4.5114  0.3112
 5649SOL     OW23945   2.929   3.320   2.934 -0.1774 -0.9886 -0.1276
 5649SOL    HW123946   3.025   3.291   2.932 -0.5016 -2.1686  0.5158
 5649SOL    HW223947   2.923   3.417   2.912  1.0152 -1.2669 -1.7337
 5650SOL     OW23948   3.037   4.720   5.282 -0.3731  0.5496  0.3378
 5650SOL    HW123949   2.966   4.788   5.303 -1.3015 -0.8627  1.8310
 5650SOL    HW223950   3.122   4.746   5.327 -0.5529  1.0228  0.4122
 5651SOL     OW23951   0.401   2.055   5.795  0.2559  0.6364 -0.4371
 5651SOL    HW123952   0.337   2.100   5.857 -0.1924 -1.0184  0.3369
 5651SOL    HW223953   0.475   2.118   5.771 -0.3134  1.7379  0.6735
 5652SOL     OW23954   2.280   1.911   1.634  0.1025  0.2870 -0.4657
 5652SOL    HW123955   2.287   1.930   1.536 -0.1097  0.2519 -0.4865
 5652SOL    HW223956   2.217   1.835   1.649  2.0335 -1.3723 -0.4984
 5653SOL     OW23957   3.639   5.581   3.629  0.2757 -0.2518 -0.4704
 5653SOL    HW123958   3.635   5.501   3.689  0.7555 -2.2989 -3.1168
 5653SOL    HW223959   3.727   5.585   3.582  0.2878  1.8820 -0.3414
 5654SOL     OW23960   5.735   4.292   2.244 -0.3944  0.8338  0.3300
 5654SOL    HW123961   5.806   4.361   2.231  0.3530  0.1723  0.8109
 5654SOL    HW223962   5.750   4.216   2.181  1.4108 -0.9300  2.7915
 5655SOL     OW23963   4.903   0.701   2.823  0.2749  0.1954 -0.3466
 5655SOL    HW123964   4.892   0.637   2.899  1.4359  0.2173 -0.1611
 5655SOL    HW223965   4.868   0.659   2.739 -0.9485  0.1469  0.1752
 5656SOL     OW23966   2.387   2.319   2.584  0.1633  0.0262 -0.3301
 5656SOL    HW123967   2.464   2.275   2.539  0.7362  2.1096 -1.4647
 5656SOL    HW223968   2.308   2.259   2.581  0.7928 -0.7495 -2.2260
 5657SOL     OW23969   0.060   7.336   2.133 -0.2221  0.1842 -0.0523
 5657SOL    HW123970   0.093   7.290   2.050 -2.9239  1.8337 -2.1356
 5657SOL    HW223971   0.138   7.375   2.182  1.4119 -0.4741 -2.0391
 5658SOL     OW23972   0.235   6.815   0.365  0.2201 -0.7211  0.3402
 5658SOL    HW123973   0.148   6.807   0.414  0.3296 -0.2180  0.6252
 5658SOL    HW223974   0.274   6.725   0.350 -0.3130 -0.9472  0.2836
 5659SOL     OW23975   6.429   2.728   5.065  0.9139  0.0394 -0.4012
 5659SOL    HW123976   6.419   2.805   5.127  1.2496 -1.2646  1.3226
 5659SOL    HW223977   6.491   2.753   4.990  1.5384  1.2103  0.4987
 5660SOL     OW23978   4.415   7.330   3.663  0.3285 -0.0121 -0.3707
 5660SOL    HW123979   4.386   7.289   3.577 -0.1291  1.0945 -0.7528
 5660SOL    HW223980   4.515   7.340   3.663  0.3791 -0.5193 -0.5434
 5661SOL     OW23981   5.037   0.884   6.097 -0.6081  0.1249 -0.2791
 5661SOL    HW123982   4.940   0.862   6.085 -0.3930 -0.0422 -1.8089
 5661SOL    HW223983   5.057   0.972   6.054 -0.1725  0.3533  0.3926
 5662SOL     OW23984   6.157   4.021   2.295 -0.0138  0.0154 -1.0982
 5662SOL    HW123985   6.107   4.009   2.209  1.6362  0.4265 -2.1382
 5662SOL    HW223986   6.253   3.996   2.281  0.1125 -0.6428  0.8297
 5663SOL     OW23987   5.928   6.881   6.431  0.4504 -0.0298 -0.1324
 5663SOL    HW123988   5.942   6.974   6.397  0.9886 -0.0127  0.1249
 5663SOL    HW223989   5.866   6.883   6.510 -1.1416 -0.1180 -1.3626
 5664SOL     OW23990   6.132   6.767   3.177  0.0620 -0.1723 -0.3342
 5664SOL    HW123991   6.132   6.783   3.078 -1.1513 -2.1966 -0.6762
 5664SOL    HW223992   6.105   6.851   3.224  0.5148  0.7712 -1.7120
 5665SOL     OW23993   5.472   1.124   1.211 -0.7863 -0.0665  0.4285
 5665SOL    HW123994   5.537   1.048   1.215  0.4595  0.9436 -0.5002
 5665SOL    HW223995   5.380   1.089   1.191  0.3550 -1.0068 -3.3481
 5666SOL     OW23996   4.400   3.876   5.104 -0.1466  0.4119  0.8541
 5666SOL    HW123997   4.426   3.971   5.087  0.9348 -0.0676 -0.2233
 5666SOL    HW223998   4.451   3.842   5.183  2.7817 -0.6037 -1.4058
 5667SOL     OW23999   6.780   1.246   0.492 -0.3193 -0.2716 -0.3204
 5667SOL    HW124000   6.829   1.286   0.414  0.3445  0.3241  0.3983
 5667SOL    HW224001   6.682   1.260   0.480 -0.1441  0.9207 -0.4484
 5668SOL     OW24002   4.633   5.189   4.411 -0.1513  0.1933 -0.4521
 5668SOL    HW124003   4.608   5.129   4.335  2.1230 -0.3395 -0.7902
 5668SOL    HW224004   4.645   5.282   4.377  0.4335  0.0415 -0.6549
 5669SOL     OW24005   2.037   3.665   1.667 -0.2862  0.3711  0.2753
 5669SOL    HW124006   2.026   3.734   1.595  0.1873 -1.4309 -1.5504
 5669SOL    HW224007   1.954   3.664   1.725  0.0184  2.9914  0.8477
 5670SOL     OW24008   5.686   2.932   1.459  0.0660 -0.4365  0.0668
 5670SOL    HW124009   5.606   2.894   1.506 -1.3879  0.4342 -1.6041
 5670SOL    HW224010   5.742   2.858   1.423  0.9540 -1.0930  2.7159
 5671SOL     OW24011   5.730   2.911   0.242  0.4993  0.1945 -0.5892
 5671SOL    HW124012   5.830   2.908   0.241  0.5712  1.9218 -0.1963
 5671SOL    HW224013   5.699   2.996   0.200 -0.8008 -0.1148 -0.2784
 5672SOL     OW24014   6.038   6.747   5.874 -0.0396  0.4970 -0.5513
 5672SOL    HW124015   5.973   6.703   5.937  1.3273 -0.1345  0.4316
 5672SOL    HW224016   6.043   6.694   5.790  0.4845 -0.4098  0.0486
 5673SOL     OW24017   1.944   4.655   3.500  0.1031 -0.2570 -0.0377
 5673SOL    HW124018   1.878   4.609   3.559  1.1118 -0.9339  0.5766
 5673SOL    HW224019   1.985   4.589   3.438 -0.3578  0.3075 -0.9498
 5674SOL     OW24020   6.721   7.040   0.473  0.2993 -0.0197  0.1025
 5674SOL    HW124021   6.793   7.037   0.542 -1.2126  1.0367  1.7933
 5674SOL    HW224022   6.633   7.018   0.515 -0.4594 -0.8398 -1.8234
 5675SOL     OW24023   2.096   7.273   5.628  0.1904 -0.0687  0.2261
 5675SOL    HW124024   2.116   7.177   5.607 -2.1327 -0.6237  0.4191
 5675SOL    HW224025   2.019   7.277   5.691  0.8667  1.9171  0.9520
 5676SOL     OW24026   3.401   2.655   5.899  0.1436 -0.0595 -0.3035
 5676SOL    HW124027   3.397   2.592   5.822  1.2355  0.5150 -0.8340
 5676SOL    HW224028   3.457   2.615   5.972  1.0176  0.3809 -0.7267
 5677SOL     OW24029   2.958   0.459   2.931  0.0525  0.2408  0.6337
 5677SOL    HW124030   2.898   0.439   2.853  0.7883  0.8831 -0.1154
 5677SOL    HW224031   2.930   0.545   2.973  0.3153  0.4386  0.4082
 5678SOL     OW24032   5.359   1.665   1.158 -0.1662 -0.1564 -0.0772
 5678SOL    HW124033   5.290   1.699   1.222  0.7042  1.1243  0.1917
 5678SOL    HW224034   5.313   1.622   1.080 -1.3401  2.1306 -0.7038
 5679SOL     OW24035   1.950   4.991   5.361  0.3828  0.1841  0.0296
 5679SOL    HW124036   1.897   5.024   5.283  1.0933  1.1493 -0.0526
 5679SOL    HW224037   2.004   5.066   5.399  1.7721 -0.8026  0.0597
 5680SOL     OW24038   2.181   6.832   2.198  0.2476 -0.4039 -0.1846
 5680SOL    HW124039   2.130   6.768   2.141  0.2112 -0.4848 -0.0621
 5680SOL    HW224040   2.164   6.811   2.294  0.0369 -0.0479 -0.1454
 5681SOL     OW24041   6.302   0.191   4.067 -0.8619 -0.4971 -0.4410
 5681SOL    HW124042   6.321   0.279   4.109 -1.9814 -0.6018  0.3010
 5681SOL    HW224043   6.377   0.166   4.007 -0.3185  0.7398 -0.2872
 5682SOL     OW24044   4.986   5.855   2.020  0.1602  0.0201  0.3522
 5682SOL    HW124045   4.896   5.899   2.022 -0.6410 -1.5330 -0.6624
 5682SOL    HW224046   4.977   5.763   1.983  1.9850 -0.6201  1.4604
 5683SOL     OW24047   5.987   2.057   7.189 -0.0411 -0.1730 -0.8573
 5683SOL    HW124048   6.033   2.109   7.117 -0.4198 -1.9656 -2.4310
 5683SOL    HW224049   6.056   2.016   7.249  0.3368 -0.0545 -1.2051
 5684SOL     OW24050   4.343   1.493   0.942  0.3192 -0.2033  0.1515
 5684SOL    HW124051   4.244   1.508   0.944  0.5958  1.6706  0.6506
 5684SOL    HW224052   4.382   1.517   1.031  1.1028 -1.9163  0.2915
 5685SOL     OW24053   0.298   3.860   4.526  0.2751  0.0449  0.1037
 5685SOL    HW124054   0.292   3.891   4.431  0.5238 -1.3070 -0.3704
 5685SOL    HW224055   0.214   3.883   4.574  0.6162  1.7965 -0.1115
 5686SOL     OW24056   5.549   2.065   3.436 -0.5217  0.0989 -0.8933
 5686SOL    HW124057   5.607   2.075   3.355  2.0760  1.1607  1.0198
 5686SOL    HW224058   5.569   1.977   3.480 -0.7890  0.2266 -0.5176
 5687SOL     OW24059   0.166   3.326   6.965 -0.3574  0.4096  0.3074
 5687SOL    HW124060   0.130   3.389   6.896 -1.0153  0.4110  0.6378
 5687SOL    HW224061   0.097   3.256   6.984 -0.2777  0.5414  1.1150
 5688SOL     OW24062   5.075   3.133   5.607 -0.4657  0.1930 -0.0684
 5688SOL    HW124063   5.040   3.165   5.519  0.1675 -1.1928 -0.8349
 5688SOL    HW224064   5.093   3.212   5.666 -0.6470  1.1483 -1.2708
 5689SOL     OW24065   2.833   5.057   5.690  0.1703  0.1206 -0.4529
 5689SOL    HW124066   2.900   5.092   5.755  0.3746 -2.5558  0.8615
 5689SOL    HW224067   2.750   5.112   5.694 -0.4377 -0.9637  3.3130
 5690SOL     OW24068   3.867   4.279   2.389 -0.7865 -0.2729  0.1474
 5690SOL    HW124069   3.957   4.317   2.411 -0.8889 -0.9289  1.7827
 5690SOL    HW224070   3.877   4.207   2.321 -0.2017  0.4243 -0.5048
 5691SOL     OW24071   5.891   3.435   0.870 -0.2152  0.7950 -0.5290
 5691SOL    HW124072   5.888   3.413   0.968  1.9446  1.5157 -0.2792
 5691SOL    HW224073   5.965   3.499   0.852 -0.8398  0.9785 -2.6042
 5692SOL     OW24074   5.192   3.950   1.318 -0.3186  0.1641  0.6445
 5692SOL    HW124075   5.119   3.898   1.274  1.2097 -1.4875 -0.0205
 5692SOL    HW224076   5.237   4.008   1.251 -0.6025  0.6939  0.9115
 5693SOL     OW24077   6.746   2.575   3.574  0.0637 -0.9689  0.0723
 5693SOL    HW124078   6.792   2.661   3.593 -1.1041 -0.7031  1.8113
 5693SOL    HW224079   6.714   2.574   3.479  0.8374  0.1429 -0.2044
 5694SOL     OW24080   7.104   3.068   7.144 -0.1366 -0.3048  0.5491
 5694SOL    HW124081   7.081   2.974   7.118  1.0086 -0.7545  1.1367
 5694SOL    HW224082   7.100   3.077   7.244  0.8237 -0.0203  0.5636
 5695SOL     OW24083   5.624   3.883   4.456  0.2358  0.2843  0.3239
 5695SOL    HW124084   5.654   3.976   4.438  1.0974 -0.5195 -2.7007
 5695SOL    HW224085   5.570   3.849   4.379  0.2724 -1.8352  1.1867
 5696SOL     OW24086   3.011   1.414   1.875  0.1430  0.1313 -0.1600
 5696SOL    HW124087   3.020   1.320   1.843  2.3456 -0.0017  0.7528
 5696SOL    HW224088   3.008   1.415   1.975  0.7197  1.0693 -0.1476
 5697SOL     OW24089   2.048   7.177   1.549 -0.1010 -0.5408 -0.3635
 5697SOL    HW124090   1.954   7.201   1.574 -0.2272 -0.3691 -1.0028
 5697SOL    HW224091   2.083   7.241   1.481  1.3040  0.8118  1.5797
 5698SOL     OW24092   6.863   3.963   4.417 -0.3197  0.3429 -0.4664
 5698SOL    HW124093   6.768   3.938   4.400 -1.1022  3.4168 -0.9940
 5698SOL    HW224094   6.922   3.916   4.351 -1.7837  0.5308 -1.9680
 5699SOL     OW24095   7.056   6.884   1.698  0.1611  0.4837  0.0112
 5699SOL    HW124096   7.141   6.937   1.692  0.4042 -0.1130 -2.2862
 5699SOL    HW224097   7.016   6.876   1.607 -0.9608 -1.5286  0.6709
 5700SOL     OW24098   6.047   6.334   7.272  0.2792  0.5512  0.2766
 5700SOL    HW124099   5.957   6.291   7.269  1.2419 -1.4185 -1.4806
 5700SOL    HW224100   6.092   6.313   7.359  1.2012 -3.0829 -0.9929
 5701SOL     OW24101   1.727   2.539   2.207 -0.1099  0.0605  0.2167
 5701SOL    HW124102   1.668   2.589   2.144  0.0904 -0.7337 -0.5900
 5701SOL    HW224103   1.725   2.585   2.297 -1.9556  0.0190  0.2053
 5702SOL     OW24104   2.918   3.733   3.399 -0.0903 -0.0655 -0.4447
 5702SOL    HW124105   2.850   3.674   3.442 -0.2485  1.3386  1.2496
 5702SOL    HW224106   3.002   3.735   3.454 -0.7106  2.6658  0.4712
 5703SOL     OW24107   4.688   4.528   2.715  0.0838  0.0491 -0.3880
 5703SOL    HW124108   4.755   4.454   2.720  2.3049  2.0570 -0.0921
 5703SOL    HW224109   4.703   4.593   2.789 -1.7554  0.8889 -0.7266
 5704SOL     OW24110   2.336   4.095   1.402 -0.0965  0.0796 -0.1470
 5704SOL    HW124111   2.401   4.039   1.454 -1.0246 -0.7887  0.0954
 5704SOL    HW224112   2.250   4.045   1.392 -0.8773  1.3932 -0.0972
 5705SOL     OW24113   1.703   0.227   6.893 -0.5090  0.2166  0.1505
 5705SOL    HW124114   1.667   0.165   6.963  0.3192  1.1644  1.4435
 5705SOL    HW224115   1.667   0.319   6.910 -1.5549  0.1540 -1.6161
 5706SOL     OW24116   6.651   2.113   2.340 -0.2197 -0.7280 -0.0100
 5706SOL    HW124117   6.730   2.172   2.320 -0.7838  0.2348  0.5209
 5706SOL    HW224118   6.650   2.036   2.276  1.5997 -1.1988  0.4925
 5707SOL     OW24119   3.506   2.418   0.632 -0.0007 -0.0852 -0.0237
 5707SOL    HW124120   3.492   2.388   0.538  0.8807 -0.1909 -0.1258
 5707SOL    HW224121   3.486   2.343   0.695  1.3094 -0.6353 -0.2317
 5708SOL     OW24122   6.270   5.477   1.074  0.4369  0.2388 -0.2736
 5708SOL    HW124123   6.326   5.455   1.154  1.5095  0.4296 -0.9742
 5708SOL    HW224124   6.255   5.576   1.070 -0.0776  0.1749 -0.0087
 5709SOL     OW24125   3.834   3.924   6.488  0.1251 -0.5889 -0.1028
 5709SOL    HW124126   3.851   3.838   6.441 -0.5051 -0.5092 -0.4793
 5709SOL    HW224127   3.764   3.976   6.439 -0.3017 -0.3600  0.7390
 5710SOL     OW24128   2.877   3.151   1.027 -0.5718 -0.0561 -0.3920
 5710SOL    HW124129   2.874   3.052   1.015  0.8251 -0.1006 -0.4140
 5710SOL    HW224130   2.822   3.177   1.107  1.4633 -1.1511  1.3973
 5711SOL     OW24131   5.288   2.185   3.604 -0.1406 -0.5376 -0.1992
 5711SOL    HW124132   5.384   2.159   3.593  0.1537  0.3789  0.1922
 5711SOL    HW224133   5.262   2.250   3.533 -0.3566 -0.4556 -0.0460
 5712SOL     OW24134   2.747   2.242   5.719  0.0207  0.2340  0.3656
 5712SOL    HW124135   2.846   2.228   5.722  0.0674  0.7380  1.5528
 5712SOL    HW224136   2.701   2.161   5.753  0.0307  0.1166  0.1035
 5713SOL     OW24137   6.555   1.005   6.135 -0.2398  0.2305 -0.2798
 5713SOL    HW124138   6.530   1.080   6.074 -0.5481  1.3383  1.1736
 5713SOL    HW224139   6.476   0.945   6.149 -0.5111  0.6266 -0.0752
 5714SOL     OW24140   5.372   4.536   0.139  0.6282 -0.0153  0.1581
 5714SOL    HW124141   5.346   4.440   0.153  0.2793 -0.0437 -0.6832
 5714SOL    HW224142   5.311   4.577   0.072  2.7655 -0.0779 -1.8693
 5715SOL     OW24143   2.789   5.666   4.930  0.1399 -0.4131 -0.4004
 5715SOL    HW124144   2.829   5.724   5.001  0.0049  1.2787 -1.6859
 5715SOL    HW224145   2.729   5.598   4.973 -0.2345  0.8205  1.0825
 5716SOL     OW24146   6.480   6.382   0.417  0.3548  0.1904  0.4467
 5716SOL    HW124147   6.436   6.294   0.404  1.8055 -0.2048 -2.1405
 5716SOL    HW224148   6.543   6.377   0.495 -0.1016 -0.8261  0.7562
 5717SOL     OW24149   0.964   4.269   6.758 -0.0525  0.3176  0.0274
 5717SOL    HW124150   0.895   4.341   6.750  0.7088  0.9613 -0.7015
 5717SOL    HW224151   0.964   4.214   6.674 -0.7356 -0.6244  0.6391
 5718SOL     OW24152   2.757   0.272   6.709  0.3184 -0.0813 -0.1105
 5718SOL    HW124153   2.790   0.323   6.789  1.1300 -0.5563 -0.1343
 5718SOL    HW224154   2.823   0.200   6.687  0.3978  0.4411 -1.5976
 5719SOL     OW24155   4.341   4.915   6.516  0.2266 -0.0351 -0.3422
 5719SOL    HW124156   4.428   4.882   6.553  0.4678  0.2892 -0.6190
 5719SOL    HW224157   4.265   4.866   6.560  0.4265  1.6543  2.0039
 5720SOL     OW24158   6.768   4.005   3.969 -0.0527  0.5953  0.6063
 5720SOL    HW124159   6.796   3.910   3.957 -0.3957  0.4678  0.8113
 5720SOL    HW224160   6.724   4.037   3.884  0.1026  0.5860  0.5220
 5721SOL     OW24161   1.622   0.877   1.048  0.3515  0.2311 -0.2366
 5721SOL    HW124162   1.586   0.895   1.140  0.0515 -1.0124 -0.1063
 5721SOL    HW224163   1.546   0.865   0.984  0.5419 -0.8231 -0.2693
 5722SOL     OW24164   5.363   6.302   6.757 -0.1326  0.0161  0.0972
 5722SOL    HW124165   5.445   6.305   6.700 -1.7732 -0.3145 -2.3632
 5722SOL    HW224166   5.374   6.234   6.829  1.8346  0.1577 -0.0541
 5723SOL     OW24167   1.759   5.983   4.906  0.0550 -0.3272 -0.0548
 5723SOL    HW124168   1.678   6.027   4.866 -0.5048 -2.0164 -0.8580
 5723SOL    HW224169   1.841   6.030   4.875 -0.5601  0.5984 -0.2993
 5724SOL     OW24170   4.476   5.191   5.464 -0.3543  0.0318 -0.0179
 5724SOL    HW124171   4.378   5.197   5.448 -0.6094 -0.1174  1.4290
 5724SOL    HW224172   4.495   5.124   5.536  0.9397 -1.1777 -1.4594
 5725SOL     OW24173   6.699   5.229   6.489 -0.0255 -0.3491 -0.7878
 5725SOL    HW124174   6.721   5.323   6.464  0.4611 -0.0280  0.7885
 5725SOL    HW224175   6.775   5.169   6.463  0.3770 -0.0533 -0.3120
 5726SOL     OW24176   6.675   1.054   1.643  0.3427  0.0460  0.1193
 5726SOL    HW124177   6.669   1.150   1.615  0.9336  0.2686  0.7413
 5726SOL    HW224178   6.708   0.999   1.566  0.2510  0.3801 -0.1621
 5727SOL     OW24179   5.069   5.522   1.458 -0.0330  0.1181  0.1479
 5727SOL    HW124180   5.112   5.514   1.548 -1.3713 -0.7525  0.7188
 5727SOL    HW224181   5.037   5.616   1.445  1.6450  0.6707 -0.1137
 5728SOL     OW24182   5.593   0.645   1.898  0.0113  0.1602 -0.5841
 5728SOL    HW124183   5.554   0.737   1.894  0.6965  0.4210 -1.4687
 5728SOL    HW224184   5.547   0.592   1.969 -0.4574  1.1551 -0.1365
 5729SOL     OW24185   2.612   2.719   0.538 -0.1001 -0.5144 -0.1778
 5729SOL    HW124186   2.559   2.635   0.528 -0.5429 -0.1921 -0.5793
 5729SOL    HW224187   2.708   2.701   0.515 -0.1225 -0.9962  0.1121
 5730SOL     OW24188   4.537   3.934   2.629 -0.3796 -0.8641  0.8355
 5730SOL    HW124189   4.583   3.849   2.654 -1.2494 -1.3998  0.6291
 5730SOL    HW224190   4.447   3.913   2.590  0.8372 -0.0560 -2.5656
 5731SOL     OW24191   0.644   6.937   5.149 -0.1147  0.1343 -0.0796
 5731SOL    HW124192   0.670   6.847   5.183  0.2777  0.4747  0.5104
 5731SOL    HW224193   0.578   6.926   5.074 -0.3724 -0.6287  0.2551
 5732SOL     OW24194   5.520   6.821   5.811 -0.7738 -0.5895  0.4767
 5732SOL    HW124195   5.589   6.894   5.810 -2.2412  0.8006 -1.0187
 5732SOL    HW224196   5.429   6.861   5.810 -1.6035 -2.4476 -0.0909
 5733SOL     OW24197   4.592   2.027   3.916  0.0938 -0.2165  0.0423
 5733SOL    HW124198   4.508   1.993   3.958  0.2980  0.5225  1.0787
 5733SOL    HW224199   4.667   1.964   3.936 -0.0183 -0.3793 -0.0527
 5734SOL     OW24200   1.265   5.125   5.848  0.1657 -0.1287  0.6111
 5734SOL    HW124201   1.238   5.221   5.863 -0.4384 -0.2974  0.6314
 5734SOL    HW224202   1.183   5.071   5.829  0.5983 -0.4832 -0.2575
 5735SOL     OW24203   1.383   2.773   0.811 -0.5649  0.0149 -0.0266
 5735SOL    HW124204   1.291   2.751   0.779 -0.5412 -1.2490  0.7557
 5735SOL    HW224205   1.434   2.818   0.737 -1.3882 -0.4209 -0.8696
 5736SOL     OW24206   2.329   1.775   0.975 -0.2261  0.3159 -0.0356
 5736SOL    HW124207   2.305   1.831   0.895 -0.5940  0.8474  0.4385
 5736SOL    HW224208   2.321   1.679   0.952  1.7671  0.4123 -1.2856
 5737SOL     OW24209   4.227   3.109   1.920 -0.9460 -0.2879 -0.0530
 5737SOL    HW124210   4.168   3.100   1.840  0.3879  1.1881 -1.2420
 5737SOL    HW224211   4.171   3.131   2.000 -1.9702  2.1746 -1.3729
 5738SOL     OW24212   5.383   4.963   5.469  0.3135  0.0324 -0.2542
 5738SOL    HW124213   5.374   4.946   5.370 -0.5360  0.6257 -0.2892
 5738SOL    HW224214   5.394   5.061   5.484 -0.2508  0.0126  0.2848
 5739SOL     OW24215   1.031   1.852   0.343  0.4273 -0.7563  0.1371
 5739SOL    HW124216   1.108   1.913   0.324  0.3661 -0.8000 -0.2699
 5739SOL    HW224217   1.058   1.757   0.330  0.4868 -0.8075  0.6458
 5740SOL     OW24218   2.107   6.004   5.000  0.0346  0.2625  0.5858
 5740SOL    HW124219   2.046   5.941   5.049 -0.7038 -0.0242 -0.6820
 5740SOL    HW224220   2.134   6.078   5.062 -1.4976  0.3237  1.2171
 5741SOL     OW24221   6.729   5.489   6.388 -0.5481 -0.1976 -0.1573
 5741SOL    HW124222   6.637   5.492   6.349 -0.7220 -0.8396  0.2035
 5741SOL    HW224223   6.775   5.576   6.371 -0.9669 -0.1265 -0.9588
 5742SOL     OW24224   6.835   3.638   4.773  0.2586  0.3044 -0.5592
 5742SOL    HW124225   6.867   3.572   4.841 -1.3235  0.3038  0.2151
 5742SOL    HW224226   6.887   3.627   4.689 -0.9474 -2.9578 -0.9568
 5743SOL     OW24227   5.683   3.707   5.624  0.9808 -0.2551  0.0348
 5743SOL    HW124228   5.781   3.686   5.620  1.7176  2.4834  2.2924
 5743SOL    HW224229   5.642   3.664   5.704  0.7855  0.3247  0.2475
 5744SOL     OW24230   1.005   3.949   1.957 -0.1152  0.1090 -0.2170
 5744SOL    HW124231   0.953   3.915   2.035 -1.2646  0.5680 -0.7628
 5744SOL    HW224232   1.020   3.874   1.892 -0.1149 -0.0235 -0.0638
 5745SOL     OW24233   7.118   5.862   3.360  0.2131  0.1000  0.3472
 5745SOL    HW124234   7.020   5.845   3.364  0.0525  1.1970  1.2589
 5745SOL    HW224235   7.146   5.878   3.265 -0.2791 -1.3612 -0.0540
 5746SOL     OW24236   1.303   5.879   0.285  0.2839  0.2680  0.1645
 5746SOL    HW124237   1.248   5.807   0.329  0.5661  0.2533  0.4896
 5746SOL    HW224238   1.400   5.860   0.300  0.3737  0.3706 -0.2971
 5747SOL     OW24239   1.255   5.164   7.222  0.0449  0.8815 -0.0789
 5747SOL    HW124240   1.183   5.096   7.206 -0.0478  1.3514 -1.7357
 5747SOL    HW224241   1.235   5.215   7.306  0.3117 -1.3674  1.4149
 5748SOL     OW24242   3.857   2.014   7.114  0.3198  0.3149  0.0785
 5748SOL    HW124243   3.797   2.094   7.121  0.7001  0.8573 -2.5831
 5748SOL    HW224244   3.812   1.943   7.059  0.0390 -1.3109  2.3046
 5749SOL     OW24245   3.824   3.347   1.671 -0.4167  0.0521  0.5408
 5749SOL    HW124246   3.807   3.306   1.582 -2.4063  1.4065  0.2416
 5749SOL    HW224247   3.846   3.276   1.738  0.7850 -0.9961 -0.9434
 5750SOL     OW24248   0.513   6.179   0.347 -0.3036  0.1436 -0.2924
 5750SOL    HW124249   0.524   6.085   0.315  0.1421  0.1911 -0.2718
 5750SOL    HW224250   0.569   6.194   0.428 -0.1313  0.5206 -0.4804
 5751SOL     OW24251   2.579   4.354   2.420  0.2041 -0.1479 -0.0881
 5751SOL    HW124252   2.572   4.383   2.324 -0.1598 -0.5966 -0.1979
 5751SOL    HW224253   2.490   4.359   2.464  0.0610 -1.4694 -0.2176
 5752SOL     OW24254   2.476   2.580   1.679 -0.0720  0.0415 -0.1514
 5752SOL    HW124255   2.558   2.560   1.625 -2.0729 -0.1688 -3.2286
 5752SOL    HW224256   2.450   2.499   1.731 -0.0156 -0.8584 -1.5023
 5753SOL     OW24257   3.302   7.296   6.895 -0.4929  0.1162 -0.3863
 5753SOL    HW124258   3.266   7.382   6.929 -2.2564  0.1944 -2.4058
 5753SOL    HW224259   3.247   7.220   6.930  1.1572 -0.2629  1.5287
 5754SOL     OW24260   5.005   5.379   2.336  0.2076 -0.4787  0.6561
 5754SOL    HW124261   5.058   5.299   2.363  1.9994  0.1451 -0.9177
 5754SOL    HW224262   4.976   5.430   2.417  1.8963 -0.8963  1.5285
 5755SOL     OW24263   4.098   2.954   2.712  0.1985  0.5840  0.5758
 5755SOL    HW124264   4.152   2.875   2.681  0.9334  0.2011  2.7336
 5755SOL    HW224265   4.064   3.005   2.633 -0.1139 -1.7798 -0.8566
 5756SOL     OW24266   5.641   4.067   0.328 -0.0148  0.0334 -0.0252
 5756SOL    HW124267   5.645   3.969   0.348 -2.6290 -0.0204  0.3600
 5756SOL    HW224268   5.679   4.085   0.237  2.5910 -1.0070  0.7978
 5757SOL     OW24269   1.765   4.937   3.971 -0.4528  0.2967 -0.0045
 5757SOL    HW124270   1.727   4.906   4.058 -0.0963 -0.3342 -0.0649
 5757SOL    HW224271   1.700   4.919   3.897  0.5185 -2.1365 -0.3194
 5758SOL     OW24272   4.690   5.119   1.142  0.3428 -0.4658  0.1320
 5758SOL    HW124273   4.774   5.128   1.195  0.8467 -0.5491 -0.6333
 5758SOL    HW224274   4.711   5.129   1.044 -0.6661  0.3054 -0.0095
 5759SOL     OW24275   2.198   0.979   5.108  0.3612 -0.1717 -0.3128
 5759SOL    HW124276   2.122   1.016   5.161  0.1428  0.6370 -1.1667
 5759SOL    HW224277   2.225   0.890   5.144 -0.9138 -0.4037  0.0760
 5760SOL     OW24278   0.474   1.516   1.658 -0.5074 -0.4960 -0.3877
 5760SOL    HW124279   0.481   1.489   1.754 -0.7663  2.3403  0.4772
 5760SOL    HW224280   0.520   1.604   1.645 -1.0096 -0.5485 -2.7413
 5761SOL     OW24281   2.223   3.430   1.727  0.2074  0.6330  0.0467
 5761SOL    HW124282   2.163   3.506   1.704  0.5764  1.6411  2.2545
 5761SOL    HW224283   2.205   3.400   1.821 -0.4882 -2.5576 -1.0268
 5762SOL     OW24284   5.892   7.142   0.041  0.5341 -0.9574  0.4837
 5762SOL    HW124285   5.963   7.202   0.076  1.7644 -1.6904 -0.7178
 5762SOL    HW224286   5.911   7.048   0.070  0.5356 -1.2901 -0.6035
 5763SOL     OW24287   2.051   0.701   5.381  0.2705  0.2796  0.0928
 5763SOL    HW124288   2.007   0.787   5.407  0.0993 -0.1779  1.3635
 5763SOL    HW224289   2.149   0.715   5.373  0.0404  1.0556 -1.7042
 5764SOL     OW24290   4.469   3.022   0.899 -0.1715  0.3242  0.7286
 5764SOL    HW124291   4.396   3.088   0.881  1.8655  1.7734 -2.8708
 5764SOL    HW224292   4.524   3.053   0.976 -0.6256  1.6566  0.5328
 5765SOL     OW24293   1.885   6.893   1.259  0.2959 -0.1266 -0.7511
 5765SOL    HW124294   1.962   6.858   1.311  0.2332 -1.0360 -1.2708
 5765SOL    HW224295   1.802   6.844   1.286 -0.7255  2.8844  2.0666
 5766SOL     OW24296   0.076   4.569   6.245 -0.0254  0.7064  0.1166
 5766SOL    HW124297  -0.006   4.528   6.285  0.0834  1.5048  1.1745
 5766SOL    HW224298   0.062   4.667   6.234  1.2673  1.0698  1.5330
 5767SOL     OW24299   4.775   6.752   1.715  0.4190 -0.3882  0.1867
 5767SOL    HW124300   4.857   6.711   1.755  0.8601 -0.9787 -1.2836
 5767SOL    HW224301   4.732   6.811   1.783  0.8974 -1.6872  1.6857
 5768SOL     OW24302   4.989   5.784   1.545  0.6531 -0.4998  0.7526
 5768SOL    HW124303   4.920   5.761   1.613 -0.5951  0.6372 -0.1015
 5768SOL    HW224304   5.078   5.796   1.589 -0.3480  1.3407  2.3379
 5769SOL     OW24305   1.341   4.352   3.067 -0.1436 -0.1844 -0.0124
 5769SOL    HW124306   1.407   4.362   2.993 -0.7146 -0.8595 -0.6196
 5769SOL    HW224307   1.388   4.324   3.151  0.6821  1.8185  0.2266
 5770SOL     OW24308   1.139   2.108   6.263  0.3182 -0.2785 -0.0368
 5770SOL    HW124309   1.156   2.024   6.313 -0.8927  0.7096  2.1148
 5770SOL    HW224310   1.194   2.110   6.180  1.3292 -2.5798  0.5611
 5771SOL     OW24311   7.331   0.126   4.721  0.9950  0.2575 -0.2621
 5771SOL    HW124312   7.335   0.213   4.771  1.4396  0.0168  0.1270
 5771SOL    HW224313   7.415   0.075   4.736  1.3107  0.3762 -1.6435
 5772SOL     OW24314   6.665   5.492   1.693  0.3029  0.6237  0.0699
 5772SOL    HW124315   6.674   5.556   1.769 -2.7509 -0.4003  1.3744
 5772SOL    HW224316   6.607   5.533   1.622  1.1161  0.6162 -0.5982
 5773SOL     OW24317   2.501   7.017   0.740  0.0677  0.0740 -0.4969
 5773SOL    HW124318   2.593   6.989   0.770  0.3779  0.9773 -0.5870
 5773SOL    HW224319   2.509   7.072   0.657 -0.5166  0.6447 -0.1748
 5774SOL     OW24320   4.680   2.018   3.389  0.1028  0.5625 -0.1445
 5774SOL    HW124321   4.589   2.040   3.425  0.2755 -0.6156  1.0150
 5774SOL    HW224322   4.745   2.011   3.464  0.3670 -2.4083 -0.6024
 5775SOL     OW24323   6.606   5.811   3.179 -0.5030  0.2034  0.2650
 5775SOL    HW124324   6.515   5.784   3.145 -0.6795  0.2870  0.6708
 5775SOL    HW224325   6.676   5.754   3.135 -0.9165 -1.3384  1.5378
 5776SOL     OW24326   0.893   2.122   3.033  0.2124  0.3728 -0.0406
 5776SOL    HW124327   0.941   2.088   3.113  0.0996 -0.3844 -0.2878
 5776SOL    HW224328   0.959   2.144   2.961  0.3271  1.2335  0.3247
 5777SOL     OW24329   1.047   5.059   0.585  0.1613  0.1736 -0.2000
 5777SOL    HW124330   1.050   5.004   0.668  0.5167 -0.7328 -0.8099
 5777SOL    HW224331   1.138   5.058   0.542  0.4561  2.0619  0.3221
 5778SOL     OW24332   4.062   6.599   0.918 -0.2695  0.3240 -0.3589
 5778SOL    HW124333   3.972   6.556   0.916 -0.1624  0.1077 -0.6492
 5778SOL    HW224334   4.104   6.592   0.827 -0.0233  0.5569 -0.2642
 5779SOL     OW24335   3.072   5.010   5.512 -0.3013 -0.2309 -0.3845
 5779SOL    HW124336   3.121   5.097   5.517  1.0701 -1.0512  0.7894
 5779SOL    HW224337   2.988   5.016   5.565  0.1062  0.1800  0.2178
 5780SOL     OW24338   2.631   0.442   1.972  0.8678  0.1199 -0.0714
 5780SOL    HW124339   2.660   0.379   2.044 -2.6268 -1.0960  0.3832
 5780SOL    HW224340   2.695   0.436   1.895  2.1781 -1.9004  1.1174
 5781SOL     OW24341   0.802   6.377   4.241 -0.3265 -0.4755 -0.9075
 5781SOL    HW124342   0.874   6.332   4.294  1.5934  1.6864 -1.6134
 5781SOL    HW224343   0.744   6.430   4.303  0.1628 -0.2697 -0.6242
 5782SOL     OW24344   0.053   2.297   3.305  0.6491 -0.3700 -0.0722
 5782SOL    HW124345  -0.029   2.351   3.286  0.9278 -0.2260 -0.9102
 5782SOL    HW224346   0.060   2.223   3.238  1.2874 -0.2823 -0.1063
 5783SOL     OW24347   5.034   2.775   1.703 -0.0738  0.1225 -0.4441
 5783SOL    HW124348   5.065   2.698   1.648 -0.0713 -0.3620  0.2303
 5783SOL    HW224349   4.942   2.756   1.738  0.4700 -0.1407  0.8252
 5784SOL     OW24350   4.937   1.192   2.270 -0.1339 -0.0822  0.5747
 5784SOL    HW124351   4.903   1.224   2.181  0.8899 -1.5223 -0.3428
 5784SOL    HW224352   4.966   1.271   2.325  0.7982  0.7036 -1.0141
 5785SOL     OW24353   2.695   6.146   2.349  0.2874 -0.1998 -0.0623
 5785SOL    HW124354   2.766   6.168   2.282 -0.0185 -0.3210 -0.4272
 5785SOL    HW224355   2.736   6.096   2.426  0.7662  0.5838  0.1950
 5786SOL     OW24356   1.139   3.580   1.289  0.2470  0.4290 -0.0491
 5786SOL    HW124357   1.071   3.618   1.352 -1.1612  1.1617 -1.9211
 5786SOL    HW224358   1.091   3.542   1.209  1.9716 -0.3672 -0.7103
 5787SOL     OW24359   7.200   4.567   2.490  0.7600 -0.4232  0.0359
 5787SOL    HW124360   7.290   4.611   2.485  0.8459 -0.5889  0.1500
 5787SOL    HW224361   7.132   4.628   2.450  0.7690  0.1125  0.8344
 5788SOL     OW24362   3.438   1.733   4.437  0.5519 -0.6926 -0.2484
 5788SOL    HW124363   3.472   1.686   4.356  0.4502 -0.8299 -0.2129
 5788SOL    HW224364   3.399   1.665   4.500  1.1568 -0.6462  0.1696
 5789SOL     OW24365   3.819   7.096   3.116  0.4611  0.2060 -0.4727
 5789SOL    HW124366   3.896   7.101   3.051  1.6324 -1.9141  0.6849
 5789SOL    HW224367   3.818   7.005   3.158 -2.3650  0.4198 -0.0399
 5790SOL     OW24368   1.956   4.929   5.791 -0.2133  0.1006  0.2931
 5790SOL    HW124369   1.928   4.844   5.836  2.1274 -1.3693 -0.9841
 5790SOL    HW224370   2.034   4.969   5.840  1.9351 -1.1641 -1.9919
 5791SOL     OW24371   4.568   4.746   4.733  0.1506  0.0601  0.0596
 5791SOL    HW124372   4.603   4.839   4.725 -0.1442  0.3159  1.6023
 5791SOL    HW224373   4.472   4.749   4.759 -0.1699 -0.6797 -0.9952
 5792SOL     OW24374   1.848   7.293   5.797 -0.0405 -0.0545  0.1470
 5792SOL    HW124375   1.813   7.202   5.822 -1.4252  0.8035  1.4222
 5792SOL    HW224376   1.829   7.311   5.701 -0.5791 -0.7585  0.1179
 5793SOL     OW24377   5.279   6.227   5.387  0.0280 -0.6111  0.4112
 5793SOL    HW124378   5.317   6.136   5.369 -1.3184 -0.6955 -2.0576
 5793SOL    HW224379   5.180   6.226   5.375 -0.1411  0.9600  1.4008
 5794SOL     OW24380   7.300   5.345   4.185 -0.5620  0.4337  0.5206
 5794SOL    HW124381   7.389   5.387   4.172 -1.1201  1.7915  0.9875
 5794SOL    HW224382   7.247   5.398   4.251 -1.6732 -0.4251  0.3482
 5795SOL     OW24383   4.364   4.190   3.995  0.4382  0.1416 -0.2788
 5795SOL    HW124384   4.273   4.195   4.037  0.8273 -0.6352  0.6791
 5795SOL    HW224385   4.432   4.170   4.066  1.3154  0.4529 -1.0352
 5796SOL     OW24386   0.218   4.422   0.370  0.0486  0.1271  0.1411
 5796SOL    HW124387   0.134   4.433   0.422  0.3312 -0.0704  0.6429
 5796SOL    HW224388   0.219   4.331   0.328  0.1135  0.0471  0.3170
 5797SOL     OW24389   6.260   6.822   2.633 -0.2188 -0.0179  0.2854
 5797SOL    HW124390   6.275   6.917   2.605 -1.9322  0.0361 -0.5125
 5797SOL    HW224391   6.169   6.793   2.605  0.5713 -2.1695 -0.1884
 5798SOL     OW24392   6.516   4.627   5.922  0.3274 -0.1708 -0.1636
 5798SOL    HW124393   6.595   4.606   5.863 -1.4310 -0.7681 -2.3981
 5798SOL    HW224394   6.478   4.542   5.958 -0.9752 -0.1271 -1.3860
 5799SOL     OW24395   0.332   6.744   0.091  0.4706  0.7802 -0.1072
 5799SOL    HW124396   0.403   6.674   0.100 -0.8196 -0.5935 -0.6483
 5799SOL    HW224397   0.324   6.795   0.177 -0.9531 -1.9888  1.4417
 5800SOL     OW24398   1.285   4.734   0.776  0.5744  0.4532  0.4936
 5800SOL    HW124399   1.373   4.777   0.795  0.4631  0.8325  0.1424
 5800SOL    HW224400   1.237   4.716   0.862  1.6506 -1.1400  0.7902
 5801SOL     OW24401   0.175   0.234   0.529  0.1481 -0.2954  0.0288
 5801SOL    HW124402   0.251   0.277   0.479 -1.8071  0.7850 -2.1668
 5801SOL    HW224403   0.171   0.137   0.506  0.0452 -0.0659 -0.9697
 5802SOL     OW24404   5.098   6.203   2.355 -0.3043 -0.3646 -0.7754
 5802SOL    HW124405   5.186   6.225   2.313 -0.5853  0.4571 -0.9471
 5802SOL    HW224406   5.032   6.276   2.334 -0.5000 -0.0284  0.9385
 5803SOL     OW24407   5.803   5.644   3.009 -0.2282 -0.0964 -0.1048
 5803SOL    HW124408   5.704   5.649   3.024 -0.1370  0.8830  0.2450
 5803SOL    HW224409   5.848   5.716   3.062  0.9682 -2.3406  2.0171
 5804SOL     OW24410   3.055   5.678   3.389 -0.0254  0.4494 -0.4131
 5804SOL    HW124411   2.993   5.738   3.339 -1.3339 -1.6812 -1.4340
 5804SOL    HW224412   3.002   5.619   3.450  0.6229 -3.2986 -3.2867
 5805SOL     OW24413   4.317   1.684   4.620  0.0931  0.5704 -0.2688
 5805SOL    HW124414   4.384   1.740   4.571  0.8088  0.1284  0.1911
 5805SOL    HW224415   4.300   1.722   4.710 -1.3942  1.5071 -0.9320
 5806SOL     OW24416   4.757   5.112   5.408 -0.2584 -0.0053 -0.3876
 5806SOL    HW124417   4.766   5.033   5.468  1.1847 -0.8202 -1.6351
 5806SOL    HW224418   4.674   5.163   5.431 -0.4443 -1.0769  1.3617
 5807SOL     OW24419   5.419   6.520   4.487  0.4002 -0.1644 -0.3998
 5807SOL    HW124420   5.414   6.620   4.479 -2.0065 -0.0994  1.0852
 5807SOL    HW224421   5.340   6.479   4.441  0.0636 -1.2211  1.0828
 5808SOL     OW24422   2.454   1.564   0.214  0.2546 -0.2649  0.0860
 5808SOL    HW124423   2.359   1.570   0.246  0.5334 -1.5288  1.1840
 5808SOL    HW224424   2.515   1.555   0.292  1.0900 -1.7116 -0.6981
 5809SOL     OW24425   4.792   4.860   0.630 -0.3886  0.2112 -0.0620
 5809SOL    HW124426   4.832   4.789   0.688 -0.0878  1.0269  0.7438
 5809SOL    HW224427   4.798   4.831   0.535  0.8204 -0.3235  0.1550
 5810SOL     OW24428   2.974   2.876   0.938 -0.0686 -0.2230 -0.0623
 5810SOL    HW124429   3.066   2.866   0.898  0.1516 -0.3512  0.4679
 5810SOL    HW224430   2.975   2.838   1.031 -0.2848  1.1059  0.4858
 5811SOL     OW24431   5.425   1.888   0.271 -0.0776  0.1796  0.0453
 5811SOL    HW124432   5.359   1.955   0.306 -1.4842 -0.7266 -0.8156
 5811SOL    HW224433   5.516   1.910   0.305 -0.4931  2.6217 -0.3331
 5812SOL     OW24434   0.637   3.622   6.857  0.6860  0.4484  0.1387
 5812SOL    HW124435   0.615   3.592   6.950  0.7003  1.1960  0.3881
 5812SOL    HW224436   0.576   3.696   6.831  0.4890  0.0431 -0.5666
 5813SOL     OW24437   5.813   2.377   3.029 -0.2176 -0.1947  0.1868
 5813SOL    HW124438   5.798   2.278   3.040 -0.3588 -0.0598  1.2382
 5813SOL    HW224439   5.734   2.418   2.983  0.8082 -0.9299 -2.3022
 5814SOL     OW24440   1.967   2.221   6.109  0.4796 -0.4465  0.0959
 5814SOL    HW124441   1.985   2.320   6.102  0.0006 -0.4150 -0.7969
 5814SOL    HW224442   1.898   2.205   6.179  0.6434 -0.1615  0.3280
 5815SOL     OW24443   6.433   1.851   2.348 -0.7850  0.6030 -0.0398
 5815SOL    HW124444   6.422   1.774   2.411  0.4662  0.1397 -0.3780
 5815SOL    HW224445   6.364   1.844   2.275  0.4056 -1.1612 -1.0324
 5816SOL     OW24446   0.023   5.781   6.341 -0.6596 -0.0306 -0.7825
 5816SOL    HW124447  -0.032   5.830   6.408 -1.6442 -1.0836 -0.8029
 5816SOL    HW224448   0.115   5.820   6.339 -0.3976 -0.4290  1.6784
 5817SOL     OW24449   6.172   3.928   7.055 -0.3034 -0.2720 -0.2902
 5817SOL    HW124450   6.176   3.904   7.152 -0.7867 -1.4176 -0.5490
 5817SOL    HW224451   6.159   3.845   7.001 -3.0765  0.6669 -1.1216
 5818SOL     OW24452   5.390   0.414   2.957  0.2000  0.0067  0.0890
 5818SOL    HW124453   5.366   0.322   2.926 -1.3591  1.0279 -1.9006
 5818SOL    HW224454   5.418   0.469   2.878 -0.3337  1.6597  1.0234
 5819SOL     OW24455   4.600   3.748   4.933  0.1810  0.4487  0.3311
 5819SOL    HW124456   4.583   3.677   4.865 -0.7868  0.2531  0.7589
 5819SOL    HW224457   4.532   3.740   5.007  1.6493  0.2010  1.6874
 5820SOL     OW24458   4.573   0.005   6.997 -0.1752  0.2577  0.6565
 5820SOL    HW124459   4.595   0.040   7.088 -3.3162 -1.5443  2.1827
 5820SOL    HW224460   4.641   0.038   6.931  1.3936  2.6848  3.3888
 5821SOL     OW24461   6.842   4.232   0.906 -0.2873  0.0013 -0.6032
 5821SOL    HW124462   6.918   4.167   0.916 -0.6233  0.0893  3.2084
 5821SOL    HW224463   6.876   4.325   0.921 -0.9632  0.1157  0.2427
 5822SOL     OW24464   2.761   0.798   1.033 -0.1006  0.3756  0.6022
 5822SOL    HW124465   2.735   0.731   0.963  0.1449 -0.1958  1.0528
 5822SOL    HW224466   2.850   0.773   1.071 -0.3034  0.5953  1.2217
 5823SOL     OW24467   1.762   3.077   4.472 -0.0955 -0.4035 -0.4969
 5823SOL    HW124468   1.779   2.986   4.511  0.0230 -0.1569  0.0289
 5823SOL    HW224469   1.789   3.078   4.376  1.2680 -0.5120 -0.1174
 5824SOL     OW24470   4.342   0.792   0.355 -0.1106 -0.6396 -0.1545
 5824SOL    HW124471   4.247   0.779   0.328  0.6058 -1.8191 -2.2848
 5824SOL    HW224472   4.368   0.720   0.419 -0.3769 -0.9554 -0.3933
 5825SOL     OW24473   4.356   5.733   3.531 -0.2667 -0.3670  0.5605
 5825SOL    HW124474   4.454   5.724   3.544 -0.2353  0.4720  0.8741
 5825SOL    HW224475   4.315   5.641   3.530  0.5549 -0.7344  0.0675
 5826SOL     OW24476   1.654   3.144   1.846 -0.3806  0.1822  0.3046
 5826SOL    HW124477   1.661   3.044   1.835 -0.8716  0.3899 -2.1255
 5826SOL    HW224478   1.650   3.187   1.756 -0.4220  2.4025  1.3426
 5827SOL     OW24479   3.602   4.115   5.215  0.8716  0.3323 -0.8276
 5827SOL    HW124480   3.583   4.097   5.119  1.8957  0.5789 -1.0909
 5827SOL    HW224481   3.694   4.083   5.237  0.1059 -0.9993  0.4353
 5828SOL     OW24482   1.593   4.086   5.300  0.0782 -0.2382  0.1712
 5828SOL    HW124483   1.516   4.104   5.240 -0.5147 -0.6911  0.7928
 5828SOL    HW224484   1.672   4.140   5.270 -0.3570 -0.0832 -0.7045
 5829SOL     OW24485   6.659   0.796   1.066  0.1393  0.1563 -0.5447
 5829SOL    HW124486   6.684   0.850   1.147 -2.0857 -0.4063  0.5785
 5829SOL    HW224487   6.561   0.775   1.070  0.1279 -0.3926 -3.1110
 5830SOL     OW24488   4.143   3.309   1.283  0.4042  0.2333  0.3695
 5830SOL    HW124489   4.046   3.321   1.264  0.4141 -0.4405 -0.1190
 5830SOL    HW224490   4.156   3.290   1.380  0.0671  0.4957  0.4674
 5831SOL     OW24491   4.445   4.528   5.018  0.3906  0.2122 -0.4164
 5831SOL    HW124492   4.444   4.539   5.117  0.4876 -2.2880 -0.1071
 5831SOL    HW224493   4.529   4.479   4.991 -0.2515 -0.2680 -1.5844
 5832SOL     OW24494   6.487   1.853   1.901 -0.6516 -0.0762  1.2871
 5832SOL    HW124495   6.551   1.811   1.837 -1.2223 -2.2246  2.0724
 5832SOL    HW224496   6.538   1.905   1.969  0.1689 -0.4078  0.9393
 5833SOL     OW24497   2.606   0.614   6.791  0.3202 -0.0366 -0.1120
 5833SOL    HW124498   2.508   0.600   6.805  0.4905  0.5103  1.8969
 5833SOL    HW224499   2.622   0.651   6.700 -1.6825  2.9049  0.6304
 5834SOL     OW24500   4.290   5.714   2.128  0.0255  0.0662 -0.0801
 5834SOL    HW124501   4.196   5.750   2.135 -0.3031 -0.8270  0.1578
 5834SOL    HW224502   4.287   5.615   2.121  0.8844  0.1428 -1.7366
 5835SOL     OW24503   2.796   3.913   5.229 -0.8271 -0.1900 -0.1058
 5835SOL    HW124504   2.862   3.942   5.298 -1.0621  0.7636 -0.2755
 5835SOL    HW224505   2.713   3.882   5.274 -1.7346  2.2832  0.0116
 5836SOL     OW24506   2.030   2.788   3.948  0.0801  0.4311 -0.3847
 5836SOL    HW124507   2.127   2.810   3.936  0.0906  0.9277  0.5563
 5836SOL    HW224508   2.007   2.707   3.895  1.1311  0.0076 -0.1940
 5837SOL     OW24509   5.950   2.565   1.185  0.4006  0.3935  0.3276
 5837SOL    HW124510   6.012   2.637   1.217  1.3569 -0.0008 -0.5994
 5837SOL    HW224511   5.897   2.598   1.108 -1.3419  1.0828  1.7850
 5838SOL     OW24512   1.735   3.029   2.733 -0.0585  0.5553  0.3113
 5838SOL    HW124513   1.764   2.948   2.682  0.3016  0.1362  1.1676
 5838SOL    HW224514   1.688   3.093   2.672 -0.4462 -0.3569 -0.3459
 5839SOL     OW24515   0.190   1.241   5.135  0.4078 -0.1829 -0.0058
 5839SOL    HW124516   0.136   1.322   5.110  1.5247  0.5355 -0.0928
 5839SOL    HW224517   0.269   1.234   5.075  0.4201 -1.2402  0.1302
 5840SOL     OW24518   1.265   3.571   0.897 -0.2722  1.2451  0.0190
 5840SOL    HW124519   1.232   3.660   0.926 -3.2576  0.2608 -0.1588
 5840SOL    HW224520   1.333   3.582   0.825 -2.5290  3.3427 -1.8834
 5841SOL     OW24521   2.719   1.841   6.369 -0.9427  0.2299  0.3625
 5841SOL    HW124522   2.696   1.776   6.440 -0.1457  0.4848  0.8609
 5841SOL    HW224523   2.648   1.840   6.299 -0.2875 -2.1397 -0.3220
 5842SOL     OW24524   0.909   4.866   3.074  0.0692  0.3540  0.4507
 5842SOL    HW124525   0.827   4.827   3.115  0.1019 -0.3813 -0.1633
 5842SOL    HW224526   0.984   4.865   3.140  0.2224 -1.1493  0.2724
 5843SOL     OW24527   4.643   2.712   5.377  0.1689  0.3396 -0.3252
 5843SOL    HW124528   4.667   2.630   5.429 -2.5879  0.0360  0.6027
 5843SOL    HW224529   4.597   2.686   5.293 -0.9898  0.9008  0.1188
 5844SOL     OW24530   3.353   4.623   3.689  0.6587 -0.0037 -0.0958
 5844SOL    HW124531   3.343   4.524   3.679 -0.0114 -0.1067  1.4877
 5844SOL    HW224532   3.396   4.660   3.607  3.1822 -1.9399  0.2955
 5845SOL     OW24533   5.441   4.589   6.704 -0.1519  0.3385  0.4558
 5845SOL    HW124534   5.493   4.525   6.762  1.7497  0.0411 -1.5081
 5845SOL    HW224535   5.370   4.539   6.655  0.0417  0.0775  0.4374
 5846SOL     OW24536   4.097   4.598   6.244 -0.4273  0.9027  0.1364
 5846SOL    HW124537   4.038   4.518   6.252 -1.5804  1.8165  0.9411
 5846SOL    HW224538   4.187   4.577   6.283 -1.0114  0.2848  1.1602
 5847SOL     OW24539   3.168   3.689   5.843 -0.4904  0.3368  0.2467
 5847SOL    HW124540   3.215   3.777   5.849 -0.3369  0.3128 -0.5083
 5847SOL    HW224541   3.213   3.623   5.903  1.0959  0.0405 -1.2230
 5848SOL     OW24542   5.000   2.504   3.266 -0.3440  0.2431 -0.4351
 5848SOL    HW124543   4.968   2.509   3.361  1.7200 -1.5930  0.3886
 5848SOL    HW224544   4.990   2.594   3.224 -2.2737  0.8310  1.1842
 5849SOL     OW24545   5.893   3.462   6.945  0.0689 -0.2057  0.6169
 5849SOL    HW124546   5.928   3.446   6.853  0.4179 -0.7262  0.8425
 5849SOL    HW224547   5.826   3.391   6.969  0.8953 -0.7818  1.2359
 5850SOL     OW24548   2.713   5.549   4.555  0.6104  0.5067  0.7381
 5850SOL    HW124549   2.630   5.494   4.556 -0.4421  2.0038 -0.9561
 5850SOL    HW224550   2.785   5.502   4.607 -0.2190 -2.4700 -0.6828
 5851SOL     OW24551   3.679   4.995   2.675 -0.3028 -0.4114 -0.3453
 5851SOL    HW124552   3.647   4.928   2.742 -0.2639  0.5826  0.6843
 5851SOL    HW224553   3.660   5.087   2.708  3.6064  0.2495  0.3367
 5852SOL     OW24554   4.657   4.010   4.845 -0.2596  0.2431 -0.0801
 5852SOL    HW124555   4.609   3.929   4.881 -0.0628 -0.0780 -0.5371
 5852SOL    HW224556   4.687   3.992   4.752  2.8888 -0.4779  0.9906
 5853SOL     OW24557   2.943   3.090   3.426 -0.2089  0.0303 -0.4080
 5853SOL    HW124558   2.953   2.996   3.395  0.0334 -0.8406  2.2418
 5853SOL    HW224559   3.009   3.109   3.498 -1.0375  1.8865 -0.1080
 5854SOL     OW24560   1.604   4.920   3.732  0.7914  0.0633  0.2474
 5854SOL    HW124561   1.535   4.863   3.777 -0.0160  0.6345 -0.2490
 5854SOL    HW224562   1.613   4.891   3.637  0.4751  0.6758  0.0307
 5855SOL     OW24563   0.477   5.497   0.382 -0.5328 -0.4563 -0.6121
 5855SOL    HW124564   0.576   5.504   0.399 -0.7210  1.0975 -0.0668
 5855SOL    HW224565   0.440   5.420   0.434 -0.0743  0.6692  1.4290
 5856SOL     OW24566   5.894   2.435   0.759 -0.1697 -0.0232 -0.6956
 5856SOL    HW124567   5.818   2.388   0.803  0.2307 -0.6130 -0.6246
 5856SOL    HW224568   5.867   2.466   0.668 -0.2144 -1.0106 -1.0180
 5857SOL     OW24569   3.498   1.617   6.296  0.2825 -0.4608 -0.2338
 5857SOL    HW124570   3.544   1.567   6.223 -0.3852 -1.5189  0.0695
 5857SOL    HW224571   3.428   1.559   6.338  1.5110 -0.3449  2.0801
 5858SOL     OW24572   3.435   1.289   7.335  0.2493  0.5956 -0.0600
 5858SOL    HW124573   3.380   1.370   7.354 -1.4002 -0.8248  1.5379
 5858SOL    HW224574   3.478   1.258   7.420  0.4308 -0.4964 -0.5373
 5859SOL     OW24575   6.874   3.149   0.942 -0.2813  0.2390 -0.3037
 5859SOL    HW124576   6.901   3.103   0.857  0.2396 -3.4637  1.7590
 5859SOL    HW224577   6.945   3.216   0.968  0.2841  0.3007 -1.9684
 5860SOL     OW24578   6.398   2.254   4.912  0.4045 -0.3720  0.8264
 5860SOL    HW124579   6.493   2.285   4.901  0.8028 -1.6438  0.5261
 5860SOL    HW224580   6.349   2.317   4.972  1.7939 -0.3722  2.0080
 5861SOL     OW24581   4.518   3.030   3.267 -0.1462  0.6356 -0.0795
 5861SOL    HW124582   4.429   3.052   3.307 -0.4774  0.4687 -0.7258
 5861SOL    HW224583   4.589   3.043   3.336 -0.8128 -0.5110  0.8328
 5862SOL     OW24584   4.031   0.637   0.814 -0.9693 -0.0404 -1.1693
 5862SOL    HW124585   4.087   0.702   0.762  0.6164 -1.4950 -1.3180
 5862SOL    HW224586   4.052   0.544   0.784 -1.7011 -0.7529  0.4864
 5863SOL     OW24587   5.023   3.903   1.736 -0.1183 -0.5540  0.2111
 5863SOL    HW124588   5.051   3.977   1.674  0.1323 -0.2597  0.6713
 5863SOL    HW224589   4.994   3.824   1.682  0.7224 -0.5374 -0.2824
 5864SOL     OW24590   1.254   3.032   1.678 -0.2494  0.5427  0.1437
 5864SOL    HW124591   1.325   3.029   1.748  0.2710  1.0141 -0.3638
 5864SOL    HW224592   1.165   3.044   1.721  0.1911  1.9809  0.6537
 5865SOL     OW24593   7.001   5.275   3.224  0.1653 -0.5897  0.0691
 5865SOL    HW124594   6.977   5.179   3.240 -1.8770 -0.1002  0.1341
 5865SOL    HW224595   7.031   5.286   3.129  1.3387 -1.4570  0.3317
 5866SOL     OW24596   1.333   3.558   3.619  0.0590  0.0535 -0.6312
 5866SOL    HW124597   1.378   3.636   3.663  0.4725  0.3028 -1.4749
 5866SOL    HW224598   1.403   3.493   3.590 -0.1970 -0.0193 -1.0827
 5867SOL     OW24599   2.181   6.790   4.646  0.1649  0.1521 -0.1799
 5867SOL    HW124600   2.153   6.695   4.631  0.0382  0.3575 -1.2665
 5867SOL    HW224601   2.103   6.850   4.631 -0.0053  0.3687  1.4487
 5868SOL     OW24602   6.471   0.549   0.491 -0.3597  1.0436 -0.2701
 5868SOL    HW124603   6.496   0.627   0.549 -0.9141 -0.8384  2.6129
 5868SOL    HW224604   6.397   0.498   0.534 -0.1570 -0.9757 -2.2176
 5869SOL     OW24605   0.668   1.126   7.021  0.1778 -0.4990  0.1758
 5869SOL    HW124606   0.723   1.077   7.089  0.7036 -0.0654  0.0656
 5869SOL    HW224607   0.674   1.079   6.933 -0.4725 -1.0397  0.4140
 5870SOL     OW24608   2.527   0.133   3.176 -0.0393 -0.4538  0.5188
 5870SOL    HW124609   2.579   0.218   3.188  0.9564 -1.2540  2.0629
 5870SOL    HW224610   2.527   0.108   3.079 -0.4941  1.3848  0.0209
 5871SOL     OW24611   5.103   1.055   2.930  0.3108 -0.0562  0.4947
 5871SOL    HW124612   5.009   1.038   2.959  0.0955  0.7741  0.3075
 5871SOL    HW224613   5.103   1.096   2.839  0.9065 -1.0996  0.0227
 5872SOL     OW24614   5.084   1.788   4.532  0.2357 -0.3777  0.7637
 5872SOL    HW124615   5.062   1.691   4.536 -0.4784 -0.2133  0.8756
 5872SOL    HW224616   5.022   1.839   4.592  0.5015  0.1638  0.5806
 5873SOL     OW24617   4.830   6.085   3.939  0.5184 -0.5075 -0.8050
 5873SOL    HW124618   4.881   6.066   4.023 -0.4652 -1.1597 -0.3545
 5873SOL    HW224619   4.894   6.091   3.862  1.6672  2.2422  0.3107
 5874SOL     OW24620   3.248   3.542   0.815  0.1893 -0.0916 -0.2408
 5874SOL    HW124621   3.333   3.590   0.834  0.3633 -0.4236 -0.1803
 5874SOL    HW224622   3.171   3.601   0.838  0.3897 -0.6867  2.0144
 5875SOL     OW24623   6.998   2.713   1.350 -0.2577  0.0179  0.0420
 5875SOL    HW124624   7.091   2.707   1.316 -0.5457 -1.3331 -0.5419
 5875SOL    HW224625   6.941   2.760   1.283 -0.2038 -0.0259 -0.0340
 5876SOL     OW24626   3.149   1.197   6.685  0.2913 -0.0255 -0.4174
 5876SOL    HW124627   3.144   1.266   6.757  1.5133 -0.4758  0.1286
 5876SOL    HW224628   3.245   1.173   6.669 -0.0357 -0.6584 -1.5007
 5877SOL     OW24629   2.482   0.582   5.474  0.4542  0.3058 -0.2678
 5877SOL    HW124630   2.488   0.485   5.499 -0.9859  0.3305  0.2152
 5877SOL    HW224631   2.541   0.600   5.396  0.3587 -1.0651 -0.6653
 5878SOL     OW24632   1.578   4.477   3.860  0.6409 -0.1183  0.6828
 5878SOL    HW124633   1.567   4.423   3.944  0.1467 -0.0354  0.6763
 5878SOL    HW224634   1.670   4.463   3.823 -0.2333 -2.8273 -0.6092
 5879SOL     OW24635   4.375   7.115   6.376 -0.4552  0.0385  0.0977
 5879SOL    HW124636   4.406   7.184   6.442  1.1526 -0.4987 -0.0790
 5879SOL    HW224637   4.421   7.129   6.288  0.1263 -1.4223  0.1449
 5880SOL     OW24638   5.527   6.833   1.519 -0.6720 -0.1138 -0.1458
 5880SOL    HW124639   5.512   6.842   1.618 -1.3779  1.6463 -0.3903
 5880SOL    HW224640   5.599   6.895   1.490 -1.5224  0.5016 -0.9751
 5881SOL     OW24641   4.327   3.671   1.339 -0.4509  0.3410  0.0341
 5881SOL    HW124642   4.286   3.613   1.268  1.6794  1.0738 -1.8774
 5881SOL    HW224643   4.255   3.705   1.400 -2.4513  0.2360 -2.1871
 5882SOL     OW24644   4.833   0.257   0.116  0.4634  0.0195 -0.8260
 5882SOL    HW124645   4.897   0.317   0.163  0.3781 -0.3299 -0.2518
 5882SOL    HW224646   4.740   0.294   0.122  0.2701 -0.6419  0.3442
 5883SOL     OW24647   3.550   4.450   4.353 -0.1119 -0.5997  0.3182
 5883SOL    HW124648   3.454   4.476   4.351 -0.2506 -1.0624  0.7426
 5883SOL    HW224649   3.603   4.519   4.402  0.0876  0.6179 -1.5546
 5884SOL     OW24650   0.347   7.265   1.488 -0.3709 -0.6839 -0.2876
 5884SOL    HW124651   0.441   7.298   1.495 -0.7824  0.0578  2.0182
 5884SOL    HW224652   0.337   7.210   1.404  1.8835 -0.0923 -0.9669
 5885SOL     OW24653   7.154   5.611   3.074 -0.3757 -0.7015  0.2569
 5885SOL    HW124654   7.100   5.691   3.046  1.8197  1.0178  0.8719
 5885SOL    HW224655   7.216   5.586   3.001  0.6007 -0.3670  0.9567
 5886SOL     OW24656   6.796   5.593   0.186  0.0888 -0.2744  0.2096
 5886SOL    HW124657   6.793   5.537   0.103  1.9847 -0.4051  0.2141
 5886SOL    HW224658   6.835   5.539   0.260  1.0449  0.7441  0.4569
 5887SOL     OW24659   5.120   5.690   7.276 -0.2722 -0.3257  0.0185
 5887SOL    HW124660   5.041   5.658   7.327 -0.0123 -0.3804  0.3841
 5887SOL    HW224661   5.089   5.750   7.201 -0.5899  0.3944  0.7250
 5888SOL     OW24662   1.092   6.735   5.809  0.0382  0.4034 -0.4902
 5888SOL    HW124663   1.113   6.642   5.779 -1.3798  0.1347 -0.6714
 5888SOL    HW224664   1.018   6.772   5.753  0.7313  1.7248 -0.5579
 5889SOL     OW24665   1.009   4.039   5.752 -0.5381  0.3856 -0.3728
 5889SOL    HW124666   1.043   4.092   5.674 -0.0701  0.0966 -0.3711
 5889SOL    HW224667   1.049   4.075   5.836 -0.3436  0.1378 -0.3577
 5890SOL     OW24668   4.266   1.098   3.835  0.5440 -0.5032  0.5467
 5890SOL    HW124669   4.348   1.148   3.863  1.0997 -2.0526  1.7255
 5890SOL    HW224670   4.185   1.147   3.866  1.0066  0.9218 -0.4277
 5891SOL     OW24671   3.151   5.626   1.058 -0.2747 -0.0470  0.0470
 5891SOL    HW124672   3.094   5.604   1.137  0.7860  2.4992  1.5944
 5891SOL    HW224673   3.230   5.565   1.055 -0.3691 -0.2175  0.8954
 5892SOL     OW24674   6.744   2.136   7.125 -0.3383 -0.0774 -0.1193
 5892SOL    HW124675   6.812   2.113   7.055 -0.8707  0.0721 -0.6980
 5892SOL    HW224676   6.785   2.128   7.216  0.9428  1.6810 -0.5305
 5893SOL     OW24677   0.864   1.577   0.900 -0.4055  0.0302  0.6660
 5893SOL    HW124678   0.955   1.619   0.901 -0.0950 -0.5019 -1.8031
 5893SOL    HW224679   0.830   1.568   0.994  2.3004 -0.1986  1.6670
 5894SOL     OW24680   4.950   6.610   7.239  0.0097  0.0538 -0.7685
 5894SOL    HW124681   4.904   6.561   7.165  1.5416  0.4825 -2.0277
 5894SOL    HW224682   5.047   6.589   7.239 -0.0851 -0.5879  1.6653
 5895SOL     OW24683   4.397   0.245   1.935 -0.1406  0.2273  0.2309
 5895SOL    HW124684   4.384   0.335   1.976  0.5158  0.6101 -0.3894
 5895SOL    HW224685   4.461   0.252   1.858  1.9133 -1.1995  1.7527
 5896SOL     OW24686   5.750   2.806   6.714 -0.5534  0.0245  0.8715
 5896SOL    HW124687   5.684   2.827   6.642  0.9669  1.0009 -0.2727
 5896SOL    HW224688   5.703   2.801   6.802 -2.1606  0.6429  0.0696
 5897SOL     OW24689   5.824   7.158   3.482  0.0621 -0.0258  0.2940
 5897SOL    HW124690   5.902   7.171   3.543  0.4328  0.3619 -0.2530
 5897SOL    HW224691   5.837   7.074   3.429 -0.2220 -0.3212  0.6879
 5898SOL     OW24692   0.392   5.352   2.196 -0.5221 -0.7044  0.5750
 5898SOL    HW124693   0.393   5.253   2.212  0.2890 -0.9661 -1.0452
 5898SOL    HW224694   0.464   5.395   2.250 -1.9068 -0.7742  2.5378
 5899SOL     OW24695   4.089   2.613   6.242 -0.5109 -0.2980 -0.2758
 5899SOL    HW124696   4.088   2.602   6.342 -1.9279 -1.4137 -0.4062
 5899SOL    HW224697   4.166   2.562   6.204  0.2563  0.4307  0.2700
 5900SOL     OW24698   6.755   5.236   1.714 -0.5393  0.1792  0.1050
 5900SOL    HW124699   6.690   5.168   1.748 -0.0364 -0.8980 -1.0025
 5900SOL    HW224700   6.715   5.327   1.719 -1.4650 -0.2690  1.0530
 5901SOL     OW24701   4.135   7.145   3.987  0.2656  0.3231  0.7171
 5901SOL    HW124702   4.060   7.198   3.946 -0.9388 -2.3883 -0.7267
 5901SOL    HW224703   4.223   7.180   3.953 -0.6085 -0.2044 -2.2562
 5902SOL     OW24704   2.653   3.502   1.566  0.3226 -0.0886 -0.5032
 5902SOL    HW124705   2.714   3.523   1.489  0.6094 -3.1059 -1.1370
 5902SOL    HW224706   2.687   3.422   1.615 -0.4969  1.1036  2.1157
 5903SOL     OW24707   7.188   3.499   4.756 -0.0970 -0.4289  0.3915
 5903SOL    HW124708   7.163   3.410   4.718 -1.2479  0.5028 -1.1317
 5903SOL    HW224709   7.200   3.492   4.855 -0.8250 -2.1259  0.3706
 5904SOL     OW24710   2.173   5.926   4.075  0.4626 -0.2259  0.5996
 5904SOL    HW124711   2.228   5.857   4.029  0.4313 -0.6232  1.1538
 5904SOL    HW224712   2.172   6.010   4.021  0.5004 -0.6576 -0.0749
 5905SOL     OW24713   4.183   4.334   5.167 -0.9872  0.1581  0.4310
 5905SOL    HW124714   4.186   4.367   5.073 -0.6817  0.3747  0.5199
 5905SOL    HW224715   4.087   4.328   5.196 -0.9930  2.4774  0.9590
 5906SOL     OW24716   1.405   4.613   2.353  0.2405  0.6103  0.1550
 5906SOL    HW124717   1.422   4.518   2.377  0.9303 -0.1444 -3.0225
 5906SOL    HW224718   1.482   4.670   2.384  0.8422 -0.2136  0.1958
 5907SOL     OW24719   0.776   2.374   3.111 -0.5252 -0.0776 -0.0630
 5907SOL    HW124720   0.830   2.331   3.039  0.6736  0.5583  0.4320
 5907SOL    HW224721   0.779   2.317   3.193 -2.3838 -1.1004 -0.6802
 5908SOL     OW24722   4.435   1.712   0.089 -0.2509  0.7669  0.5090
 5908SOL    HW124723   4.510   1.777   0.075 -0.6917  1.0449 -0.6518
 5908SOL    HW224724   4.423   1.656   0.007 -1.6709  1.1181  0.4549
 5909SOL     OW24725   0.434   3.982   2.502  0.2256  0.0351  0.0141
 5909SOL    HW124726   0.350   3.943   2.540  0.4336  0.0968  0.5396
 5909SOL    HW224727   0.487   4.025   2.575  1.3364 -1.1339 -0.0901
 5910SOL     OW24728   3.432   3.185   4.748  0.7569  0.1307  0.2623
 5910SOL    HW124729   3.404   3.277   4.776 -1.3787 -0.8719  1.6008
 5910SOL    HW224730   3.439   3.127   4.829  2.0166 -0.9154 -0.5862
 5911SOL     OW24731   0.138   2.198   1.691 -0.4678  0.2069 -0.1833
 5911SOL    HW124732   0.174   2.192   1.598 -0.6352 -0.9397 -0.1785
 5911SOL    HW224733   0.164   2.116   1.742  0.5838  1.3146  1.1247
 5912SOL     OW24734   0.696   0.724   7.212  0.1000  0.3812  0.2200
 5912SOL    HW124735   0.762   0.652   7.192 -0.8174 -0.6636  0.8730
 5912SOL    HW224736   0.636   0.737   7.133  1.4859  1.8097 -0.6333
 5913SOL     OW24737   4.497   1.152   1.831 -0.1013  0.4219  0.1120
 5913SOL    HW124738   4.590   1.152   1.794  0.4958 -0.2776  1.5746
 5913SOL    HW224739   4.441   1.086   1.781  0.6296 -0.3191  0.2671
 5914SOL     OW24740   3.354   4.162   2.076  0.2953  0.4678  0.8273
 5914SOL    HW124741   3.341   4.067   2.104  0.4827  0.9837  2.7225
 5914SOL    HW224742   3.353   4.167   1.976 -2.5055 -1.1389  0.6983
 5915SOL     OW24743   2.899   2.344   2.481  0.0782  0.6100  0.0136
 5915SOL    HW124744   2.982   2.398   2.494  0.4034  0.6359 -1.9897
 5915SOL    HW224745   2.833   2.396   2.427 -0.7008  0.0825  0.4529
 5916SOL     OW24746   0.496   1.919   0.531 -0.3608  0.1026  0.3090
 5916SOL    HW124747   0.465   2.012   0.507 -0.8063  0.0080  0.5066
 5916SOL    HW224748   0.424   1.854   0.507  0.7543 -0.4231 -1.7098
 5917SOL     OW24749   4.739   7.206   2.732 -0.3184  0.1402  0.0493
 5917SOL    HW124750   4.742   7.305   2.747  0.2376 -0.1134  1.7475
 5917SOL    HW224751   4.819   7.178   2.679  0.1312  0.4394  0.5692
 5918SOL     OW24752   2.292   3.345   4.225  0.1201 -0.4879  0.0719
 5918SOL    HW124753   2.263   3.371   4.318  1.0665  2.3247 -0.3767
 5918SOL    HW224754   2.391   3.333   4.223 -0.1359 -3.0339 -0.0579
 5919SOL     OW24755   0.568   5.619   4.951 -0.2271 -0.2502  0.0495
 5919SOL    HW124756   0.480   5.630   4.904  0.0164  0.1363 -0.3223
 5919SOL    HW224757   0.642   5.638   4.887  0.1745 -2.2453 -0.0858
 5920SOL     OW24758   1.173   5.930   6.983 -0.0351  0.3089 -0.2021
 5920SOL    HW124759   1.217   5.841   6.978 -0.4999  0.0813 -0.2931
 5920SOL    HW224760   1.124   5.949   6.898 -1.4923 -0.1802  0.5095
 5921SOL     OW24761   4.827   0.869   5.001 -0.1221  0.0698  0.2721
 5921SOL    HW124762   4.742   0.897   4.957  0.4165 -0.0937 -0.8921
 5921SOL    HW224763   4.806   0.809   5.078 -1.1368  1.3503  1.0261
 5922SOL     OW24764   6.589   4.199   1.537 -0.3576 -0.0362  0.1053
 5922SOL    HW124765   6.631   4.134   1.601 -1.0717 -0.6664 -0.0587
 5922SOL    HW224766   6.636   4.288   1.545  1.1390 -0.7733 -0.2325
 5923SOL     OW24767   6.041   3.944   2.054 -0.0350  0.2574 -0.3426
 5923SOL    HW124768   6.020   3.938   1.956  0.7140  0.5391 -0.5254
 5923SOL    HW224769   6.100   3.867   2.080  0.0746  0.3879 -0.2000
 5924SOL     OW24770   4.987   7.283   0.157 -0.4933 -0.3441 -0.2445
 5924SOL    HW124771   4.994   7.370   0.205 -0.5298 -0.1418 -0.6062
 5924SOL    HW224772   5.078   7.244   0.145 -0.3817  0.1713 -1.0547
 5925SOL     OW24773   2.929   5.158   5.196  0.3035  0.6033  0.0501
 5925SOL    HW124774   2.903   5.253   5.213  0.1182  0.2021  2.1709
 5925SOL    HW224775   3.021   5.142   5.232 -0.4312 -0.5082  1.4623
 5926SOL     OW24776   7.219   4.567   5.739  0.4883 -0.6538 -0.4637
 5926SOL    HW124777   7.238   4.622   5.659 -1.8332  0.3871 -0.3132
 5926SOL    HW224778   7.214   4.626   5.820 -1.7010 -1.0865 -0.2583
 5927SOL     OW24779   5.921   0.576   4.654  0.6150  0.2001 -0.5460
 5927SOL    HW124780   5.957   0.600   4.565  1.4526 -1.0600 -0.5639
 5927SOL    HW224781   5.925   0.476   4.665 -1.4539  0.1637  0.0430
 5928SOL     OW24782   5.554   4.710   6.484  0.5064  0.5615 -0.2817
 5928SOL    HW124783   5.489   4.684   6.555  3.3598 -0.4581  2.0854
 5928SOL    HW224784   5.578   4.629   6.430 -1.5908  1.3177 -2.4110
 5929SOL     OW24785   2.693   7.218   5.447 -0.3241  0.0417 -0.0318
 5929SOL    HW124786   2.684   7.210   5.547 -0.9570  1.1870  0.0123
 5929SOL    HW224787   2.671   7.311   5.419 -0.6408 -0.4057 -1.3052
 5930SOL     OW24788   3.712   2.356   3.009 -0.3084 -0.2486 -0.0289
 5930SOL    HW124789   3.657   2.367   3.091  0.8737  1.9465  0.5275
 5930SOL    HW224790   3.736   2.260   2.997  1.1180 -0.3732  3.2846
 5931SOL     OW24791   2.964   1.390   2.636  0.4585 -0.3445  0.0888
 5931SOL    HW124792   2.926   1.316   2.690  0.9386 -1.3246 -0.8889
 5931SOL    HW224793   3.064   1.381   2.631  0.5825  0.7075  0.4585
 5932SOL     OW24794   0.887   4.045   0.964  0.3428 -0.7575  0.5676
 5932SOL    HW124795   0.929   4.132   0.938 -1.3647  0.1742  0.8582
 5932SOL    HW224796   0.895   3.981   0.888 -2.4376  1.1661 -1.4489
 5933SOL     OW24797   6.348   0.277   4.422 -0.0590  0.1870 -0.1886
 5933SOL    HW124798   6.345   0.301   4.325 -1.6247 -3.0628 -1.0383
 5933SOL    HW224799   6.433   0.228   4.442  0.6224  1.5350  0.2914
 5934SOL     OW24800   2.580   7.270   1.433 -0.4848  0.3674  0.1262
 5934SOL    HW124801   2.525   7.339   1.480 -3.1954 -0.0098 -2.3103
 5934SOL    HW224802   2.634   7.315   1.362  0.5025  0.4269  0.9124
 5935SOL     OW24803   5.045   6.979   2.824  0.1491 -0.0543 -0.2471
 5935SOL    HW124804   5.096   6.968   2.909  0.4825 -0.3211 -0.4850
 5935SOL    HW224805   5.025   6.890   2.785  0.8121  0.1018 -0.9427
 5936SOL     OW24806   4.593   0.166   0.559 -0.0136  0.0260  0.6290
 5936SOL    HW124807   4.603   0.141   0.463 -2.3793 -0.7423  0.5320
 5936SOL    HW224808   4.671   0.221   0.588 -0.0028  1.5596 -2.1551
 5937SOL     OW24809   1.103   5.318   3.922  0.0933  0.0246  0.1243
 5937SOL    HW124810   1.105   5.413   3.953  1.8751 -0.5108  1.7263
 5937SOL    HW224811   1.041   5.265   3.980 -0.8227  0.1624 -0.7068
 5938SOL     OW24812   1.686   6.728   5.037 -0.4796 -0.4170 -0.4498
 5938SOL    HW124813   1.746   6.651   5.014 -0.2630 -0.1528 -0.7704
 5938SOL    HW224814   1.672   6.731   5.136 -0.0110 -0.5136 -0.3809
 5939SOL     OW24815   3.600   1.481   5.118 -0.5608 -0.3155  0.0511
 5939SOL    HW124816   3.516   1.427   5.111 -1.7631  1.5866 -0.4787
 5939SOL    HW224817   3.659   1.462   5.039 -0.9787 -0.8079 -0.1466
 5940SOL     OW24818   3.040   2.284   0.359  0.1807 -0.4232 -0.7973
 5940SOL    HW124819   3.023   2.298   0.456  0.2111  0.7584 -0.9547
 5940SOL    HW224820   2.960   2.314   0.306 -0.4575 -2.4734 -1.0645
 5941SOL     OW24821   3.768   1.722   1.485 -0.3306 -0.4643  0.2211
 5941SOL    HW124822   3.749   1.665   1.565 -1.5846 -0.7041 -0.2394
 5941SOL    HW224823   3.685   1.731   1.430  0.1945  0.7361 -0.3993
 5942SOL     OW24824   4.828   0.191   3.275 -0.0771  0.0322  0.8739
 5942SOL    HW124825   4.835   0.140   3.189 -2.5955 -1.4577  1.4985
 5942SOL    HW224826   4.750   0.253   3.270  0.5211  0.8536  1.6487
 5943SOL     OW24827   5.502   7.073   4.153  0.0714  0.5349  0.4508
 5943SOL    HW124828   5.509   6.973   4.156  0.1878  0.5201 -0.2366
 5943SOL    HW224829   5.564   7.109   4.084 -0.2267  1.0599  0.4530
 5944SOL     OW24830   2.982   3.237   0.240  0.0276 -0.0047 -0.5385
 5944SOL    HW124831   2.887   3.235   0.206  0.0431 -0.3214 -0.5625
 5944SOL    HW224832   2.982   3.262   0.337  0.0791  2.4921 -1.1358
 5945SOL     OW24833   1.641   3.199   5.033 -0.1711  0.0537  0.5427
 5945SOL    HW124834   1.602   3.191   5.125  3.1327 -0.4793  1.9343
 5945SOL    HW224835   1.625   3.115   4.982 -1.7838  0.2570  0.6818
 5946SOL     OW24836   4.727   0.239   5.598  0.2043 -0.7835 -0.1781
 5946SOL    HW124837   4.776   0.285   5.524 -1.1463 -0.0406 -0.6194
 5946SOL    HW224838   4.793   0.199   5.661  1.4259  1.5767  0.1037
 5947SOL     OW24839   0.844   5.094   4.322  0.0364 -0.0113  0.4586
 5947SOL    HW124840   0.884   5.054   4.240  1.4076  0.5746  0.8398
 5947SOL    HW224841   0.745   5.101   4.310  0.2329  0.1824 -1.1782
 5948SOL     OW24842   4.307   6.972   3.713 -0.2549  0.2767  0.1880
 5948SOL    HW124843   4.353   7.051   3.753  0.0139 -0.4506  1.3262
 5948SOL    HW224844   4.226   6.948   3.767  0.6248 -1.2708  0.8635
 5949SOL     OW24845   0.400   3.035   6.478 -0.2300 -0.0493 -0.3903
 5949SOL    HW124846   0.380   2.952   6.529 -2.4577  0.3997 -0.5019
 5949SOL    HW224847   0.489   3.025   6.432  0.5761 -1.4609  1.4026
 5950SOL     OW24848   6.593   2.188   1.271 -0.5347 -0.2023  0.0912
 5950SOL    HW124849   6.524   2.141   1.216  0.2114 -0.5335 -0.5825
 5950SOL    HW224850   6.573   2.285   1.275 -0.5222 -0.1521 -0.8958
 5951SOL     OW24851   7.118   4.125   0.688 -0.4536 -0.0935  0.2901
 5951SOL    HW124852   7.039   4.073   0.655  1.2834 -1.2346 -2.2305
 5951SOL    HW224853   7.112   4.219   0.656 -0.9163 -0.1176  0.3019
 5952SOL     OW24854   5.890   7.039   0.489 -0.5118  0.6519  0.2373
 5952SOL    HW124855   5.982   7.009   0.463 -0.7417  0.6245 -0.5547
 5952SOL    HW224856   5.823   6.977   0.449 -0.8176 -0.3087  2.1814
 5953SOL     OW24857   6.590   1.336   4.506 -0.4499 -0.5534 -0.3198
 5953SOL    HW124858   6.540   1.422   4.513  0.0288 -0.4035  1.5974
 5953SOL    HW224859   6.684   1.355   4.475 -0.5192 -0.4423 -0.4625
 5954SOL     OW24860   6.094   4.475   0.260 -0.2773  0.0607 -0.0054
 5954SOL    HW124861   6.157   4.405   0.293  1.0832 -0.0697 -2.7766
 5954SOL    HW224862   6.023   4.433   0.204 -0.1723  0.7338 -0.6559
 5955SOL     OW24863   2.231   7.020   4.022 -0.2858  0.1527 -0.4016
 5955SOL    HW124864   2.230   7.000   4.120 -0.6008 -1.5319 -0.7294
 5955SOL    HW224865   2.315   7.067   3.998  0.4166 -0.6436  0.4564
 5956SOL     OW24866   3.775   5.036   0.288  0.1059  0.0910  0.4229
 5956SOL    HW124867   3.863   5.056   0.243  0.5593 -0.9501  0.8238
 5956SOL    HW224868   3.748   4.943   0.266 -1.2150  0.6147 -0.1889
 5957SOL     OW24869   7.357   4.653   5.000  0.0626  0.0133  0.3834
 5957SOL    HW124870   7.383   4.625   4.908 -0.6890 -1.0438  0.4745
 5957SOL    HW224871   7.293   4.729   4.995  0.5905  0.4341  0.0543
 5958SOL     OW24872   2.861   2.380   6.768 -1.0378  0.3327 -0.0334
 5958SOL    HW124873   2.885   2.391   6.671 -0.0749 -1.4316 -0.0093
 5958SOL    HW224874   2.900   2.294   6.803 -0.4537  1.4685  2.2079
 5959SOL     OW24875   1.309   0.325   6.357  0.0594 -0.0643  0.3040
 5959SOL    HW124876   1.282   0.278   6.273  1.1245 -1.2075  0.5794
 5959SOL    HW224877   1.276   0.419   6.355  1.3466  0.3809 -2.0686
 5960SOL     OW24878   5.759   1.109   5.394  0.2805  0.2825  0.5070
 5960SOL    HW124879   5.760   1.207   5.374  2.8253  0.4180  1.0575
 5960SOL    HW224880   5.699   1.091   5.472  0.7881  1.5993  1.2194
 5961SOL     OW24881   2.992   2.494   6.991  0.2244 -0.0432  0.2140
 5961SOL    HW124882   2.926   2.528   6.925 -0.7764  0.9495  1.7108
 5961SOL    HW224883   3.071   2.556   6.995  0.7858 -0.6780 -0.8173
 5962SOL     OW24884   5.817   6.500   5.653  0.2359  0.6238  0.7591
 5962SOL    HW124885   5.785   6.424   5.596  0.5863  1.7356 -0.9573
 5962SOL    HW224886   5.841   6.466   5.744 -2.6386 -0.7836  1.0534
 5963SOL     OW24887   3.762   0.435   3.964 -0.4564 -0.2211  0.7150
 5963SOL    HW124888   3.795   0.350   3.923 -1.7154  0.1062 -1.0524
 5963SOL    HW224889   3.672   0.420   4.004  0.3021 -0.2614  2.4496
 5964SOL     OW24890   4.685   0.262   2.877  0.2918  0.1734  0.2116
 5964SOL    HW124891   4.663   0.256   2.780 -0.5935 -0.6174  0.4591
 5964SOL    HW224892   4.735   0.180   2.906 -1.2360 -0.5311  0.8783
 5965SOL     OW24893   1.807   2.746   7.112  0.0522  0.0994 -0.2182
 5965SOL    HW124894   1.742   2.759   7.038  0.4125  2.2258 -0.1829
 5965SOL    HW224895   1.853   2.658   7.101 -3.9410 -2.2394  0.6445
 5966SOL     OW24896   3.837   4.815   2.385  0.0812 -0.0663 -0.1161
 5966SOL    HW124897   3.771   4.808   2.310  0.4761  1.4474 -0.6201
 5966SOL    HW224898   3.904   4.886   2.364  2.1041 -1.8152  0.2042
 5967SOL     OW24899   0.049   6.555   6.200  0.1217 -0.0757 -0.0432
 5967SOL    HW124900   0.005   6.511   6.278  0.2690  0.3266  0.2725
 5967SOL    HW224901  -0.013   6.556   6.122  0.3195 -1.3430 -0.2243
 5968SOL     OW24902   3.878   0.049   1.099  0.0692 -0.2363 -0.1920
 5968SOL    HW124903   3.935   0.038   1.181 -1.4367  0.5246  0.9823
 5968SOL    HW224904   3.852   0.145   1.090 -1.4367 -0.6501 -0.4303
 5969SOL     OW24905   3.103   5.272   2.838 -0.1349  0.7568 -0.3426
 5969SOL    HW124906   3.057   5.351   2.798 -0.9273  0.6695  0.3639
 5969SOL    HW224907   3.036   5.216   2.887  0.6697  0.4384  0.4189
 5970SOL     OW24908   2.781   6.228   6.943  0.8865  0.2359 -0.3540
 5970SOL    HW124909   2.692   6.184   6.937  1.1268 -0.1795 -0.9229
 5970SOL    HW224910   2.779   6.299   7.014  1.0277 -1.9181  1.8588
 5971SOL     OW24911   3.558   1.210   0.212  0.1863 -0.3324 -0.1772
 5971SOL    HW124912   3.644   1.166   0.237  0.1456  1.2658  3.0017
 5971SOL    HW224913   3.572   1.309   0.209 -2.1642  0.1877  3.2850
 5972SOL     OW24914   5.413   2.552   3.511  0.1886  0.3604  0.2045
 5972SOL    HW124915   5.376   2.482   3.449  2.1145  0.6949 -1.3816
 5972SOL    HW224916   5.360   2.636   3.503  0.3465  0.3618 -0.9348
 5973SOL     OW24917   1.817   2.201   6.332 -0.5861 -0.8009  0.1789
 5973SOL    HW124918   1.873   2.123   6.362  0.7736  0.4372  0.9192
 5973SOL    HW224919   1.743   2.216   6.399 -0.3887 -0.9861  0.4398
 5974SOL     OW24920   1.528   4.970   0.527 -0.2884  0.2323  0.2078
 5974SOL    HW124921   1.588   4.889   0.527  0.3746  0.7179  1.6399
 5974SOL    HW224922   1.582   5.051   0.508 -0.5660  0.6251  1.0968
 5975SOL     OW24923   3.739   3.432   0.776  0.5177 -0.5130 -0.0691
 5975SOL    HW124924   3.747   3.493   0.697  1.8726 -1.4440 -0.6615
 5975SOL    HW224925   3.738   3.487   0.860  2.8115  0.2847 -0.5357
 5976SOL     OW24926   1.984   5.330   5.218 -0.0993  0.6798  0.3528
 5976SOL    HW124927   1.961   5.323   5.315  0.2325  1.4677  0.4925
 5976SOL    HW224928   1.927   5.267   5.165  1.3965 -1.5318  1.3206
 5977SOL     OW24929   3.254   3.673   6.447 -0.6538 -0.0600  0.0979
 5977SOL    HW124930   3.284   3.577   6.441 -0.3394 -0.0000  0.6732
 5977SOL    HW224931   3.317   3.724   6.505  0.2720  0.9578 -1.7504
 5978SOL     OW24932   1.860   3.178   0.476 -0.3547  0.2468 -0.1642
 5978SOL    HW124933   1.960   3.184   0.472 -0.4230  0.9120 -0.8671
 5978SOL    HW224934   1.822   3.196   0.386 -0.9998 -2.4512 -0.4749
 5979SOL     OW24935   2.535   6.633   0.839 -0.2282  0.0299  0.1473
 5979SOL    HW124936   2.497   6.698   0.773  0.6239  1.2462  0.8193
 5979SOL    HW224937   2.573   6.554   0.791 -0.3018  0.5512 -0.7689
 5980SOL     OW24938   1.082   3.768   1.744 -0.6644 -0.2286  0.2738
 5980SOL    HW124939   1.108   3.677   1.777 -0.5884 -0.0447  0.7301
 5980SOL    HW224940   1.030   3.760   1.660 -1.9003 -0.7767  1.0798
 5981SOL     OW24941   2.888   6.695   0.640 -0.4176  0.3923  0.0963
 5981SOL    HW124942   2.954   6.620   0.641  0.2363  0.9420  3.0234
 5981SOL    HW224943   2.797   6.659   0.621  0.0241 -1.0315  0.6254
 5982SOL     OW24944   4.694   0.116   2.638  0.7292 -0.2803 -0.2862
 5982SOL    HW124945   4.698   0.090   2.541  1.1551 -0.1188 -0.3124
 5982SOL    HW224946   4.602   0.151   2.659  1.2748  1.7452 -1.1672
 5983SOL     OW24947   0.697   6.086   5.670 -0.6071 -0.1306  0.0461
 5983SOL    HW124948   0.770   6.154   5.678 -2.1909  1.6275 -0.1549
 5983SOL    HW224949   0.669   6.057   5.762 -0.9528  0.6010  0.1727
 5984SOL     OW24950   5.872   3.940   7.242 -0.0385 -0.0969  0.0304
 5984SOL    HW124951   5.820   3.909   7.163 -0.8737  1.4778 -0.0681
 5984SOL    HW224952   5.970   3.926   7.226 -0.1856  0.5452 -1.4328
 5985SOL     OW24953   5.793   1.758   3.952  0.0241 -0.0929  0.6631
 5985SOL    HW124954   5.840   1.673   3.926 -1.3495 -0.5385 -0.4319
 5985SOL    HW224955   5.853   1.812   4.011  1.5353 -1.0764  0.0651
 5986SOL     OW24956   1.685   4.857   4.650  0.2708 -0.3190  0.0898
 5986SOL    HW124957   1.589   4.880   4.664 -0.4900 -3.1382 -0.1907
 5986SOL    HW224958   1.693   4.784   4.583  2.7105  0.5617 -0.6511
 5987SOL     OW24959   3.122   2.342   1.326  0.2392  0.0499  0.0083
 5987SOL    HW124960   3.128   2.244   1.308 -0.7638 -0.1155  0.5702
 5987SOL    HW224961   3.088   2.389   1.245  1.3066  0.0128 -0.4671
 5988SOL     OW24962   2.589   4.292   1.977 -0.4433  0.3250 -0.9993
 5988SOL    HW124963   2.529   4.326   1.905 -0.3548  0.6336 -0.9266
 5988SOL    HW224964   2.684   4.305   1.951 -0.4112  0.6976 -0.7031
 5989SOL     OW24965   2.415   3.974   4.233 -0.2390 -0.3307  0.6385
 5989SOL    HW124966   2.352   4.046   4.262 -2.4551 -2.4925  1.3563
 5989SOL    HW224967   2.384   3.886   4.269  4.1240 -1.2494  2.4293
 5990SOL     OW24968   1.605   3.060   0.057  0.1097 -0.3337  0.5731
 5990SOL    HW124969   1.664   3.025  -0.016  0.2072 -1.1740  1.0441
 5990SOL    HW224970   1.542   2.988   0.086  0.9288 -0.4320  2.1917
 5991SOL     OW24971   0.977   4.987   6.974 -0.5921 -0.0215  0.1415
 5991SOL    HW124972   0.982   4.982   7.074 -0.0131  1.5145  0.2097
 5991SOL    HW224973   0.889   5.027   6.947 -0.5926 -0.0841  0.0498
 5992SOL     OW24974   4.413   0.051   2.131 -0.2695 -0.4224  0.1196
 5992SOL    HW124975   4.402   0.111   2.052  0.3294  0.0936  0.4259
 5992SOL    HW224976   4.327   0.003   2.149 -1.1202  1.2770  0.6371
 5993SOL     OW24977   2.954   1.364   0.039  0.5119 -0.0875 -0.2727
 5993SOL    HW124978   3.026   1.419   0.080  0.1356 -0.1121  0.4315
 5993SOL    HW224979   2.976   1.346  -0.057  2.0072 -1.0779  0.2367
 5994SOL     OW24980   5.961   5.742   1.952  0.2252  0.3168  0.3717
 5994SOL    HW124981   6.036   5.718   1.890 -0.5288  1.2986 -0.9487
 5994SOL    HW224982   5.991   5.731   2.046  3.1461  3.7472 -0.0410
 5995SOL     OW24983   6.041   0.294   3.794  0.4047  0.0475 -0.5275
 5995SOL    HW124984   6.070   0.377   3.842  1.3532 -1.4458  1.5621
 5995SOL    HW224985   6.111   0.223   3.805  0.4832 -0.4679 -3.8622
 5996SOL     OW24986   3.964   2.867   3.383  0.3442 -0.6412 -0.5159
 5996SOL    HW124987   3.921   2.893   3.469  2.0799 -2.1142  0.8155
 5996SOL    HW224988   4.042   2.927   3.365  1.1732 -1.5752 -0.0665
 5997SOL     OW24989   0.259   0.382   2.027 -0.2990  0.1666  0.2671
 5997SOL    HW124990   0.295   0.299   1.984  1.6093  0.5991  1.0175
 5997SOL    HW224991   0.159   0.374   2.035 -0.0683 -2.3589  0.9812
 5998SOL     OW24992   7.053   3.976   6.731  0.0721  0.0332  0.3225
 5998SOL    HW124993   7.151   3.997   6.722 -0.3184  2.0741  0.5188
 5998SOL    HW224994   7.042   3.879   6.753  2.0751 -0.1571  0.6481
 5999SOL     OW24995   6.654   4.094   4.854 -0.2180  0.3204  0.3057
 5999SOL    HW124996   6.649   3.994   4.850 -0.0108  0.3129  0.2118
 5999SOL    HW224997   6.674   4.130   4.763  0.4068  0.4059  0.4755
 6000SOL     OW24998   2.579   6.502   0.445  0.1919 -0.5445  0.0432
 6000SOL    HW124999   2.535   6.590   0.425 -0.1112 -0.3024  1.7395
 6000SOL    HW225000   2.511   6.429   0.435  0.2420 -0.5128 -0.5721
 6001SOL     OW25001   2.182   0.602   3.404  0.3020  0.1295 -0.4501
 6001SOL    HW125002   2.210   0.645   3.319  0.3750 -1.9192 -1.5014
 6001SOL    HW225003   2.145   0.511   3.384 -0.2341 -0.1330  1.6493
 6002SOL     OW25004   7.265   2.788   4.830 -0.0131  0.0911 -0.2862
 6002SOL    HW125005   7.287   2.885   4.842  1.4307 -0.0442 -1.6718
 6002SOL    HW225006   7.168   2.779   4.808 -0.7124  1.0045  2.1686
 6003SOL     OW25007   1.577   3.809   6.544  0.4821 -0.1588 -0.3314
 6003SOL    HW125008   1.634   3.887   6.572 -1.3426  0.6503  1.2812
 6003SOL    HW225009   1.510   3.790   6.616 -0.1194 -2.2309 -1.4118
 6004SOL     OW25010   3.146   6.112   5.816  0.0628 -0.4009 -0.1525
 6004SOL    HW125011   3.122   6.016   5.830  0.0709 -0.0794  2.3180
 6004SOL    HW225012   3.161   6.155   5.905  0.9825  1.6564 -1.2886
 6005SOL     OW25013   2.263   5.781   7.224 -0.4749  0.4911 -0.3344
 6005SOL    HW125014   2.290   5.825   7.138  2.9102 -0.0497  0.3630
 6005SOL    HW225015   2.284   5.683   7.220  1.1760  0.7177  1.6031
 6006SOL     OW25016   0.137   5.237   4.832 -0.1672  0.0775  0.1046
 6006SOL    HW125017   0.082   5.155   4.846 -0.1847  0.2938  1.3584
 6006SOL    HW225018   0.122   5.301   4.907 -0.2629  1.2975 -0.9358
 6007SOL     OW25019   4.770   1.553   3.536  0.2344  0.0892  0.2787
 6007SOL    HW125020   4.743   1.473   3.483 -1.4040  1.0293 -0.3616
 6007SOL    HW225021   4.861   1.582   3.508  0.5091 -1.0748 -0.0555
 6008SOL     OW25022   5.819   2.461   1.724  0.3055  0.2417  0.4833
 6008SOL    HW125023   5.810   2.437   1.628  0.3862 -1.6350  0.9288
 6008SOL    HW225024   5.729   2.484   1.761  0.5132  2.7789 -0.4665
 6009SOL     OW25025   5.697   1.557   3.089 -0.3070  0.5688  0.5635
 6009SOL    HW125026   5.696   1.467   3.131  1.4216  0.5044  0.5030
 6009SOL    HW225027   5.610   1.573   3.041 -0.3499 -1.3339 -0.0128
 6010SOL     OW25028   1.522   6.274   1.131  0.0087  0.0569 -0.2818
 6010SOL    HW125029   1.615   6.307   1.144  0.3674 -1.4563  1.1939
 6010SOL    HW225030   1.468   6.293   1.213 -0.1667 -1.6762  0.0277
 6011SOL     OW25031   6.536   5.677   0.295 -0.1699  0.7822 -0.2086
 6011SOL    HW125032   6.613   5.636   0.246  0.2462 -0.7599  1.6580
 6011SOL    HW225033   6.450   5.646   0.253  0.1901 -0.1588 -0.2764
 6012SOL     OW25034   5.529   1.820   2.827 -0.4897  0.6591 -0.1122
 6012SOL    HW125035   5.591   1.889   2.788 -0.0124 -0.2940 -1.0487
 6012SOL    HW225036   5.530   1.827   2.926  0.8052  0.9132 -0.1402
 6013SOL     OW25037   4.394   7.100   5.794 -0.2130 -0.2753 -0.4980
 6013SOL    HW125038   4.412   7.128   5.888 -1.4984 -0.9881 -0.0176
 6013SOL    HW225039   4.407   7.177   5.732  0.0381  0.3557  0.3412
 6014SOL     OW25040   6.444   6.250   4.214  0.3145 -0.2533 -0.3123
 6014SOL    HW125041   6.401   6.289   4.295  3.1598  0.3091  0.9587
 6014SOL    HW225042   6.382   6.183   4.173 -1.2569 -0.3633  2.1470
 6015SOL     OW25043   3.051   4.357   4.562  0.7865  0.2088  0.0385
 6015SOL    HW125044   3.012   4.420   4.630  2.1807  2.1694 -0.9173
 6015SOL    HW225045   2.977   4.309   4.515 -0.3407  1.5945  0.3490
 6016SOL     OW25046   3.119   1.615   7.181  0.4972  0.2394 -0.0375
 6016SOL    HW125047   3.037   1.670   7.200  0.0552  0.0635 -1.4081
 6016SOL    HW225048   3.092   1.521   7.162  0.9624  0.3277 -1.1377
 6017SOL     OW25049   6.161   6.486   2.567 -0.1127  0.3731  0.2411
 6017SOL    HW125050   6.179   6.500   2.665 -0.5173  1.6116  0.1368
 6017SOL    HW225051   6.066   6.507   2.547  0.4809  2.1712 -0.8036
 6018SOL     OW25052   6.796   4.983   5.864  0.6726 -0.4838 -0.1886
 6018SOL    HW125053   6.790   5.032   5.777 -0.9679 -2.2884 -1.1512
 6018SOL    HW225054   6.714   5.003   5.918  1.2469 -0.1005  0.5355
 6019SOL     OW25055   4.066   4.272   5.456 -0.4333 -0.4572  0.0418
 6019SOL    HW125056   4.148   4.228   5.417 -0.2481  0.4105 -0.5512
 6019SOL    HW225057   4.051   4.360   5.411 -1.8025 -0.6918  0.0261
 6020SOL     OW25058   2.049   4.461   3.966  0.5733  0.2952  0.0412
 6020SOL    HW125059   2.143   4.483   3.994  0.7483  0.2501 -0.4974
 6020SOL    HW225060   2.013   4.536   3.910  0.9591 -0.5088 -1.3051
 6021SOL     OW25061   1.214   3.493   1.921  0.1769 -0.1291  0.5715
 6021SOL    HW125062   1.305   3.533   1.913  0.4668 -0.7435  0.8005
 6021SOL    HW225063   1.221   3.394   1.927 -0.5820 -0.2677 -0.6531
 6022SOL     OW25064   5.766   5.137   1.277  0.1168 -0.2172  0.1044
 6022SOL    HW125065   5.853   5.093   1.255 -0.0815 -0.3722 -0.3658
 6022SOL    HW225066   5.691   5.073   1.258 -0.2409  0.6475 -1.4606
 6023SOL     OW25067   3.224   2.223   0.878 -0.5970  0.4751  0.0556
 6023SOL    HW125068   3.188   2.213   0.970 -1.7864  0.2382 -0.4304
 6023SOL    HW225069   3.316   2.184   0.874 -0.5694  0.4178  1.1196
 6024SOL     OW25070   5.572   3.174   0.922  0.2967  0.1758  0.3736
 6024SOL    HW125071   5.609   3.133   1.006  0.0195 -0.7544  0.0414
 6024SOL    HW225072   5.532   3.103   0.865  2.6309  0.4238 -1.6716
 6025SOL     OW25073   6.354   6.722   1.533  0.1222  0.5488 -0.6271
 6025SOL    HW125074   6.273   6.667   1.513  0.9449 -1.2375  0.7807
 6025SOL    HW225075   6.350   6.756   1.627  1.8482 -1.1487  0.1082
 6026SOL     OW25076   2.500   5.553   2.785  0.2282  0.3454 -0.0356
 6026SOL    HW125077   2.469   5.496   2.861  0.7787 -0.5873 -0.4981
 6026SOL    HW225078   2.428   5.618   2.760 -0.8405 -0.8826 -0.2037
 6027SOL     OW25079   2.747   5.363   6.794 -0.4073  0.3194 -0.7342
 6027SOL    HW125080   2.791   5.274   6.809 -1.0623 -0.3517 -2.7100
 6027SOL    HW225081   2.695   5.387   6.876  3.0049  0.8138  1.3901
 6028SOL     OW25082   6.338   0.317   0.056  0.6386 -0.1532  0.3692
 6028SOL    HW125083   6.370   0.412   0.048 -1.0470  0.4274  0.3395
 6028SOL    HW225084   6.376   0.277   0.139 -0.7921  1.4541  1.8492
 6029SOL     OW25085   4.485   2.056   5.281  0.3202  0.3641  0.2061
 6029SOL    HW125086   4.480   1.962   5.249 -1.1640  0.9512 -1.3199
 6029SOL    HW225087   4.394   2.088   5.306  0.4979  2.0142 -1.1662
 6030SOL     OW25088   0.923   5.400   2.613 -0.3830  0.4390  0.5781
 6030SOL    HW125089   1.021   5.379   2.608 -0.6779 -0.7079 -0.5661
 6030SOL    HW225090   0.897   5.413   2.709  0.7413  0.0481  0.9531
 6031SOL     OW25091   2.032   4.103   4.660  0.9877 -0.4899  0.5000
 6031SOL    HW125092   1.939   4.100   4.624  1.3361  0.0790 -0.4707
 6031SOL    HW225093   2.029   4.123   4.758 -0.0725 -4.3896  1.3477
 6032SOL     OW25094   4.436   0.619   6.443 -0.0948 -0.4361  0.2634
 6032SOL    HW125095   4.465   0.599   6.536  1.1626  0.3958  0.0740
 6032SOL    HW225096   4.357   0.680   6.444  1.1161  1.1402  0.7843
 6033SOL     OW25097   1.248   6.016   4.849  0.1129 -0.2407 -0.9376
 6033SOL    HW125098   1.240   5.917   4.838  0.4095 -0.1007 -2.5910
 6033SOL    HW225099   1.336   6.047   4.814  1.1681  0.3008  2.0244
 6034SOL     OW25100   4.525   3.743   1.722  0.0689 -0.3643 -0.2411
 6034SOL    HW125101   4.522   3.812   1.795 -1.9958  0.2893 -0.9215
 6034SOL    HW225102   4.451   3.677   1.736  2.2324 -2.7084  0.6098
 6035SOL     OW25103   6.740   2.109   1.878  0.2842 -0.6576 -0.0499
 6035SOL    HW125104   6.759   2.196   1.832 -0.2382 -0.2886  0.4226
 6035SOL    HW225105   6.693   2.127   1.965  2.4887 -1.2662  1.3020
 6036SOL     OW25106   1.262   2.969   0.421  0.1661 -0.3605  0.1937
 6036SOL    HW125107   1.264   2.976   0.521 -1.4154  2.8994  0.0574
 6036SOL    HW225108   1.168   2.976   0.389  0.9108  1.6961 -1.6716
 6037SOL     OW25109   1.363   3.966   3.247 -1.3540  0.2869 -0.2060
 6037SOL    HW125110   1.432   3.988   3.178 -0.6380  0.0964  0.4406
 6037SOL    HW225111   1.372   4.028   3.325 -0.7054 -0.9028  0.6839
 6038SOL     OW25112   0.859   5.504   2.358 -0.1458  0.5499  0.1660
 6038SOL    HW125113   0.886   5.456   2.441 -0.1252 -0.6081 -0.4926
 6038SOL    HW225114   0.866   5.603   2.372 -0.6103  0.3706  1.6777
 6039SOL     OW25115   6.367   4.891   0.787 -0.3273 -0.3815 -0.6793
 6039SOL    HW125116   6.393   4.931   0.699  0.9627  1.9207  0.6909
 6039SOL    HW225117   6.334   4.963   0.848  0.7317 -1.6039  1.3949
 6040SOL     OW25118   0.248   2.908   5.963  0.0909  0.0249 -0.8467
 6040SOL    HW125119   0.213   3.000   5.983 -2.5183 -1.4458  1.7958
 6040SOL    HW225120   0.301   2.876   6.042  0.2669 -1.0591 -1.4067
 6041SOL     OW25121   1.763   1.546   7.172  0.1746  0.1056 -0.4457
 6041SOL    HW125122   1.820   1.593   7.240 -1.0188  0.9438 -0.0176
 6041SOL    HW225123   1.778   1.447   7.178  0.4118  0.2107  0.7206
 6042SOL     OW25124   5.350   7.335   4.476 -0.7804  0.2422  0.0983
 6042SOL    HW125125   5.415   7.372   4.409 -0.8009  1.2113  0.5984
 6042SOL    HW225126   5.346   7.396   4.555 -0.6273 -0.9775  1.0658
 6043SOL     OW25127   5.258   2.173   2.062  0.4012  0.4747  0.5054
 6043SOL    HW125128   5.244   2.106   2.134  1.1761 -0.6999 -0.4186
 6043SOL    HW225129   5.234   2.133   1.973  1.1712  1.2901 -0.0847
 6044SOL     OW25130   4.253   4.761   2.264  0.1450 -0.1578  0.5446
 6044SOL    HW125131   4.305   4.845   2.272 -0.1205  0.1163 -0.4909
 6044SOL    HW225132   4.315   4.682   2.269  0.5647  0.1436  0.0636
 6045SOL     OW25133   4.860   1.414   2.999  1.0331 -0.0493  0.0618
 6045SOL    HW125134   4.957   1.390   3.009  0.8637 -0.4227  0.8274
 6045SOL    HW225135   4.804   1.341   3.038  0.4548  0.4771  0.2179
 6046SOL     OW25136   2.873   3.933   0.653 -0.6708 -0.2334  0.5284
 6046SOL    HW125137   2.877   3.978   0.742 -0.1509  1.2538 -0.2322
 6046SOL    HW225138   2.777   3.917   0.628 -0.8165 -0.7217  1.3706
 6047SOL     OW25139   5.782   4.655   3.548 -0.0886  0.4714 -0.1803
 6047SOL    HW125140   5.771   4.750   3.520 -0.3170  0.1037 -1.3827
 6047SOL    HW225141   5.878   4.629   3.545  0.0476  0.8323  0.7549
 6048SOL     OW25142   2.340   2.919   3.639 -0.1863 -0.2482 -0.8330
 6048SOL    HW125143   2.430   2.885   3.609  0.3386  0.6147 -0.2431
 6048SOL    HW225144   2.340   3.019   3.639 -1.3568 -0.2436 -1.4303
 6049SOL     OW25145   3.321   3.218   3.953  0.2067  0.4593 -0.3619
 6049SOL    HW125146   3.274   3.189   4.037  0.8896  0.7921  0.1374
 6049SOL    HW225147   3.266   3.192   3.874 -0.8037  0.8098  0.2150
 6050SOL     OW25148   1.155   2.564   4.962  0.3522  0.3475  0.0995
 6050SOL    HW125149   1.231   2.517   4.917 -0.1094  0.7650 -1.1192
 6050SOL    HW225150   1.142   2.524   5.053  1.0102 -0.7966 -0.2843
 6051SOL     OW25151   5.863   6.741   7.183  0.2367 -0.4754 -0.2880
 6051SOL    HW125152   5.891   6.645   7.183 -0.1970 -0.6077 -2.0307
 6051SOL    HW225153   5.768   6.749   7.152  0.6448  0.6085 -1.3093
 6052SOL     OW25154   3.845   3.950   4.002  0.6468  0.2091 -0.5584
 6052SOL    HW125155   3.906   3.960   3.924  0.9639 -1.6833 -0.5843
 6052SOL    HW225156   3.776   4.022   4.000  2.6588  2.1798 -0.7082
 6053SOL     OW25157   2.064   0.688   3.655 -0.4867  0.4942  0.0932
 6053SOL    HW125158   2.068   0.787   3.642 -1.7285  0.5837  0.3566
 6053SOL    HW225159   2.059   0.643   3.566 -3.2939  0.8474  0.0092
 6054SOL     OW25160   1.207   0.571   6.872 -0.1309  0.5072  0.2528
 6054SOL    HW125161   1.195   0.607   6.780  2.6389 -1.1599 -0.8273
 6054SOL    HW225162   1.300   0.591   6.905 -1.2373  1.5294  2.9078
 6055SOL     OW25163   4.110   0.136   2.774 -0.0563  0.2449 -0.0174
 6055SOL    HW125164   4.134   0.075   2.698 -1.2558  1.2818 -1.2478
 6055SOL    HW225165   4.166   0.219   2.769 -0.4123  0.4846  0.0082
 6056SOL     OW25166   6.309   6.991   5.004  0.3603  0.1646 -0.2303
 6056SOL    HW125167   6.388   7.029   5.053  0.4385  0.5814 -0.6747
 6056SOL    HW225168   6.332   6.899   4.971  0.2697 -0.1606  0.6024
 6057SOL     OW25169   3.490   0.694   3.984 -0.3953 -0.5512  0.2248
 6057SOL    HW125170   3.439   0.672   4.066 -0.6881 -0.1230  0.1539
 6057SOL    HW225171   3.448   0.772   3.937  0.3128 -0.2010  0.1654
 6058SOL     OW25172   2.867   7.245   1.787  0.0466  0.2165  0.2173
 6058SOL    HW125173   2.775   7.284   1.803 -0.4878  1.1388 -4.5529
 6058SOL    HW225174   2.936   7.310   1.820 -0.9389  0.5599  1.6853
 6059SOL     OW25175   2.011   4.161   2.059  0.8530 -0.3085  0.1674
 6059SOL    HW125176   1.943   4.089   2.075 -2.2702  2.5857  0.3593
 6059SOL    HW225177   1.971   4.234   2.005  3.6832  1.7360  0.7192
 6060SOL     OW25178   4.416   7.132   1.126 -0.4756 -0.1865 -0.0011
 6060SOL    HW125179   4.409   7.221   1.171  0.3167  0.3559 -0.9280
 6060SOL    HW225180   4.382   7.061   1.187  0.9709  0.4787  1.6267
 6061SOL     OW25181   1.657   2.659   4.793  1.1312  0.4378  0.1452
 6061SOL    HW125182   1.677   2.664   4.891  0.7353  1.3900  0.1792
 6061SOL    HW225183   1.688   2.744   4.748 -0.8055  1.0024 -0.1654
 6062SOL     OW25184   2.792   1.071   6.609  0.4271 -0.2404  0.4908
 6062SOL    HW125185   2.872   1.012   6.604  1.3541  1.0758 -0.5046
 6062SOL    HW225186   2.819   1.166   6.596 -1.3239  0.2014 -0.2102
 6063SOL     OW25187   5.536   2.893   6.581 -0.5270  0.4237  0.2356
 6063SOL    HW125188   5.535   2.969   6.516 -0.7435  0.9817  0.8940
 6063SOL    HW225189   5.481   2.916   6.661  1.1051  0.4253  1.3888
 6064SOL     OW25190   5.460   1.435   0.787 -0.2576  0.4298 -0.2629
 6064SOL    HW125191   5.467   1.454   0.689  1.4959  3.3560  0.3728
 6064SOL    HW225192   5.517   1.356   0.810 -0.9819 -0.5126 -1.6357
 6065SOL     OW25193   0.221   6.814   0.838 -0.1526 -0.2450  0.0118
 6065SOL    HW125194   0.278   6.804   0.756 -1.1068 -0.6641 -0.6157
 6065SOL    HW225195   0.280   6.826   0.918  0.8193 -0.7004 -0.6149
 6066SOL     OW25196   4.320   6.328   4.585 -0.0369  0.0265  0.3676
 6066SOL    HW125197   4.264   6.346   4.666  1.6759 -0.7239  1.7722
 6066SOL    HW225198   4.365   6.239   4.595 -0.3676 -0.3904 -1.7510
 6067SOL     OW25199   2.571   4.659   1.149 -0.0999  0.0602 -0.1127
 6067SOL    HW125200   2.547   4.573   1.104  1.8328 -0.9804  0.7923
 6067SOL    HW225201   2.590   4.728   1.080 -1.6511 -0.2123 -0.8504
 6068SOL     OW25202   0.563   5.793   6.683  0.2672 -0.0443 -0.1835
 6068SOL    HW125203   0.595   5.883   6.654 -0.3447  0.3132  0.2478
 6068SOL    HW225204   0.489   5.763   6.622  1.3274 -0.8141 -1.1034
 6069SOL     OW25205   7.023   4.189   5.804  0.3162  0.2071 -0.1112
 6069SOL    HW125206   6.991   4.270   5.853  1.9928  0.4845  0.5610
 6069SOL    HW225207   6.992   4.193   5.709 -0.2410  1.2570  0.1076
 6070SOL     OW25208   4.156   5.074   5.686 -0.1449 -0.1408  0.2708
 6070SOL    HW125209   4.214   5.003   5.724  0.8576  1.0152  0.9436
 6070SOL    HW225210   4.150   5.062   5.587  2.2319  0.4014  0.0265
 6071SOL     OW25211   5.550   2.595   4.048  0.8050  0.2993  0.5554
 6071SOL    HW125212   5.549   2.636   3.956  2.0871 -0.1036  0.3547
 6071SOL    HW225213   5.496   2.511   4.047  0.2888  0.6256  0.3379
 6072SOL     OW25214   3.696   5.712   6.602 -0.3350  0.3569 -0.6082
 6072SOL    HW125215   3.791   5.737   6.582 -0.4378  0.2608 -1.2290
 6072SOL    HW225216   3.639   5.733   6.523 -0.9598  1.1062  0.0398
 6073SOL     OW25217   2.711   1.335   5.684  0.1923 -0.5963  0.2170
 6073SOL    HW125218   2.612   1.345   5.675  0.1422 -1.0470  0.2637
 6073SOL    HW225219   2.733   1.239   5.703  0.5400 -0.2779  1.5017
 6074SOL     OW25220   3.177   0.993   2.013  0.2866  0.1945  0.7652
 6074SOL    HW125221   3.223   0.930   1.950  1.4910  1.0413  0.7799
 6074SOL    HW225222   3.230   0.999   2.098 -2.0520 -2.0058  2.4390
 6075SOL     OW25223   3.641   0.991   0.831  0.0782  0.1710 -0.2547
 6075SOL    HW125224   3.620   1.004   0.734 -1.7330  0.2665  0.1247
 6075SOL    HW225225   3.703   0.913   0.841 -0.2380 -0.2553 -1.4451
 6076SOL     OW25226   1.762   4.227   0.808 -0.1919  0.0349  0.0144
 6076SOL    HW125227   1.793   4.310   0.854 -1.8749  1.2404 -0.9308
 6076SOL    HW225228   1.664   4.215   0.825 -0.7388  0.2375 -2.7589
 6077SOL     OW25229   3.837   0.064   7.202  0.2520 -0.0309  0.3422
 6077SOL    HW125230   3.844  -0.035   7.207  1.0547 -0.0199 -0.5241
 6077SOL    HW225231   3.813   0.091   7.109 -1.1098  0.5249  0.8386
 6078SOL     OW25232   2.705   4.217   7.351  0.0007  0.6259  0.2943
 6078SOL    HW125233   2.776   4.222   7.281 -0.9457  1.1321 -0.6455
 6078SOL    HW225234   2.666   4.308   7.365 -0.8394  0.2543  0.3991
 6079SOL     OW25235   6.777   3.622   0.369 -0.2303 -0.6379  0.0934
 6079SOL    HW125236   6.762   3.547   0.305 -0.0733  0.3789 -1.1644
 6079SOL    HW225237   6.869   3.616   0.407  0.4088 -0.1103 -1.3306
 6080SOL     OW25238   1.830   3.016   5.704 -0.1267  0.2212 -0.1223
 6080SOL    HW125239   1.770   2.966   5.642  0.2607 -0.5719  0.1391
 6080SOL    HW225240   1.782   3.097   5.738 -1.1596 -0.5503  0.2981
 6081SOL     OW25241   0.861   3.612   0.275  0.3006 -0.0245 -0.4844
 6081SOL    HW125242   0.880   3.663   0.359 -1.0194  0.3960 -0.4167
 6081SOL    HW225243   0.796   3.538   0.296  0.4093 -0.2712 -1.0296
 6082SOL     OW25244   2.579   3.930   3.999 -0.1441 -0.3836 -0.2278
 6082SOL    HW125245   2.526   3.846   3.981  0.8018 -0.9011 -0.6358
 6082SOL    HW225246   2.550   3.969   4.086 -0.6408 -1.0974 -0.0654
 6083SOL     OW25247   4.435   5.230   1.223  0.6252  0.3018 -0.3747
 6083SOL    HW125248   4.533   5.211   1.235  0.1683 -1.6425  0.4818
 6083SOL    HW225249   4.404   5.192   1.136  0.2962 -0.5669  0.1086
 6084SOL     OW25250   1.342   3.174   2.282  0.1577  0.6282 -0.2381
 6084SOL    HW125251   1.354   3.076   2.263 -0.7724  0.1399  1.5944
 6084SOL    HW225252   1.301   3.186   2.372  0.1417  2.7224 -0.4943
 6085SOL     OW25253   5.307   6.925   2.981 -0.5915  0.2659  0.2218
 6085SOL    HW125254   5.298   6.904   3.078  0.4663 -1.6611 -0.0662
 6085SOL    HW225255   5.369   6.859   2.938  0.3682  2.1760 -1.4116
 6086SOL     OW25256   2.705   2.740   1.255 -0.8186  0.1918 -0.5999
 6086SOL    HW125257   2.650   2.757   1.173 -0.2162 -1.5614 -1.3638
 6086SOL    HW225258   2.668   2.661   1.304 -0.3204  0.3779  0.0856
 6087SOL     OW25259   7.115   4.241   4.171 -0.2778 -0.2145  0.5859
 6087SOL    HW125260   7.110   4.325   4.118  0.7897  0.5238  1.6278
 6087SOL    HW225261   7.109   4.162   4.110  0.7310  0.6265 -0.6093
 6088SOL     OW25262   6.169   0.054   5.060 -0.2495 -0.5952  0.1184
 6088SOL    HW125263   6.144   0.151   5.062  0.4726 -0.4164  0.5940
 6088SOL    HW225264   6.215   0.033   4.974  1.6654  0.0119  0.9659
 6089SOL     OW25265   3.257   6.167   0.954  0.3441  0.0720  0.4123
 6089SOL    HW125266   3.237   6.074   0.922  1.3260 -0.5358  1.5437
 6089SOL    HW225267   3.174   6.208   0.991  0.2060 -0.8803  1.1934
 6090SOL     OW25268   0.817   0.048   6.720 -0.7082  0.5720  0.4737
 6090SOL    HW125269   0.915   0.056   6.733 -0.5548 -0.0121 -0.2793
 6090SOL    HW225270   0.794   0.072   6.625 -0.9881 -1.6921 -0.0562
 6091SOL     OW25271   4.367   0.182   3.369 -0.0354  0.1071  0.2321
 6091SOL    HW125272   4.393   0.195   3.465 -0.2355 -0.0848  0.3113
 6091SOL    HW225273   4.298   0.111   3.362 -0.2655  0.3540 -0.0194
 6092SOL     OW25274   0.553   3.351   1.755  0.6897 -0.0031 -0.3310
 6092SOL    HW125275   0.455   3.360   1.740  0.5220 -1.2265 -0.0193
 6092SOL    HW225276   0.599   3.436   1.729 -0.4482  0.5724 -0.4754
 6093SOL     OW25277   0.072   3.394   4.421 -0.6267 -0.0224  0.2326
 6093SOL    HW125278  -0.006   3.449   4.451  0.3253  1.5313 -0.0561
 6093SOL    HW225279   0.157   3.446   4.435  0.0724 -0.3479 -2.5302
 6094SOL     OW25280   2.199   5.199   5.233 -0.6759 -0.5536 -0.0791
 6094SOL    HW125281   2.120   5.259   5.245  1.4796  2.0407  1.6034
 6094SOL    HW225282   2.225   5.198   5.136 -2.0448 -0.5184 -0.4632
 6095SOL     OW25283   2.116   0.986   6.248 -0.1940 -0.0064  0.1000
 6095SOL    HW125284   2.179   0.919   6.207  0.0257 -0.4714  1.1766
 6095SOL    HW225285   2.023   0.950   6.245 -0.1842 -0.0195 -0.0478
 6096SOL     OW25286   2.452   4.079   6.034 -0.0381  0.0601  0.3980
 6096SOL    HW125287   2.498   4.053   6.119 -0.6413 -1.6473  0.2364
 6096SOL    HW225288   2.520   4.100   5.964  0.4558  1.6326  1.3469
 6097SOL     OW25289   6.877   2.454   4.740  0.9887  0.1723 -0.0542
 6097SOL    HW125290   6.791   2.406   4.724  1.4294 -0.4248 -0.6628
 6097SOL    HW225291   6.952   2.389   4.740  1.8907  1.1034 -3.3204
 6098SOL     OW25292   5.872   5.664   2.457  0.5172 -0.0308  0.1876
 6098SOL    HW125293   5.879   5.696   2.362  0.3741  0.3550  0.3066
 6098SOL    HW225294   5.808   5.587   2.461  0.9084 -0.3718 -0.1098
 6099SOL     OW25295   5.521   2.248   1.990 -0.1581 -0.5215  0.0446
 6099SOL    HW125296   5.580   2.308   2.043 -0.6315  1.5293 -1.6492
 6099SOL    HW225297   5.437   2.230   2.041 -0.3524  0.9384  0.2556
 6100SOL     OW25298   5.609   5.843   0.695  0.0607  0.1007  0.1480
 6100SOL    HW125299   5.612   5.942   0.685 -0.0348  0.1659  0.7446
 6100SOL    HW225300   5.519   5.809   0.668  0.1758  0.1500 -0.2935
 6101SOL     OW25301   1.794   0.448   7.307  0.1708 -0.4200 -0.5314
 6101SOL    HW125302   1.723   0.401   7.359  0.9883  0.9253  1.8536
 6101SOL    HW225303   1.751   0.512   7.243 -0.7914  1.3751  1.8416
 6102SOL     OW25304   4.957   1.122   1.830 -0.0619 -0.4163 -0.2366
 6102SOL    HW125305   4.931   1.191   1.896 -0.1401 -0.0676 -0.6315
 6102SOL    HW225306   4.969   1.034   1.876  2.0963  0.2921  0.6306
 6103SOL     OW25307   1.096   5.342   5.903 -0.4053  0.1513  0.0728
 6103SOL    HW125308   1.042   5.415   5.862 -0.9924 -0.5276 -0.3756
 6103SOL    HW225309   1.053   5.254   5.885  0.0804 -0.2793  0.9570
 6104SOL     OW25310   2.117   4.080   0.465  0.1427  0.1150  0.8248
 6104SOL    HW125311   2.164   3.992   0.463 -0.1287 -0.0217  0.4285
 6104SOL    HW225312   2.072   4.091   0.553  3.9953  1.8787  2.6715
 6105SOL     OW25313   0.672   0.724   1.489  0.2808 -0.0207  0.3578
 6105SOL    HW125314   0.633   0.682   1.572 -0.7063  0.6283  0.2359
 6105SOL    HW225315   0.601   0.730   1.419  0.2571  2.3073  0.5485
 6106SOL     OW25316   4.517   7.002   6.804 -0.2247  0.3401  0.0064
 6106SOL    HW125317   4.470   6.915   6.823  0.6541 -0.4985 -1.4961
 6106SOL    HW225318   4.464   7.077   6.843 -0.0569 -0.9966  2.9474
 6107SOL     OW25319   4.947   5.983   3.031  0.2278 -0.1998  0.1278
 6107SOL    HW125320   4.899   6.060   2.989 -0.1618  0.6458  2.0778
 6107SOL    HW225321   4.880   5.919   3.069  0.6213  0.5336  2.0708
 6108SOL     OW25322   2.845   7.010   7.320 -0.4491 -0.0389 -0.1797
 6108SOL    HW125323   2.834   6.919   7.281  0.1650  0.2741 -1.1031
 6108SOL    HW225324   2.874   7.003   7.416  2.2767 -0.8240 -1.0200
 6109SOL     OW25325   4.309   5.965   5.447 -0.1203  0.0543 -0.6267
 6109SOL    HW125326   4.351   5.874   5.447  0.7553  0.4477  0.9741
 6109SOL    HW225327   4.366   6.029   5.498  0.0063  1.8725 -2.9418
 6110SOL     OW25328   3.943   7.302   3.833  0.7469 -0.6244  0.7459
 6110SOL    HW125329   3.875   7.330   3.901  1.4665  1.1565  0.7570
 6110SOL    HW225330   3.896   7.263   3.754 -0.3206  1.0419  0.5398
 6111SOL     OW25331   1.932   1.962   7.062 -0.1791 -0.1589  0.3044
 6111SOL    HW125332   1.915   1.864   7.057 -1.2207 -0.0454  1.3326
 6111SOL    HW225333   2.023   1.982   7.025  0.2719 -1.5775  0.6087
 6112SOL     OW25334   1.033   3.909   0.419  0.4724  0.1860  0.3155
 6112SOL    HW125335   1.034   4.006   0.396 -2.4175  0.0081 -0.7946
 6112SOL    HW225336   1.058   3.855   0.339 -1.5556 -0.0967 -0.1637
 6113SOL     OW25337   1.196   1.885   7.127 -0.3654  0.2154 -0.3119
 6113SOL    HW125338   1.276   1.837   7.091  0.5824  1.0457  0.6653
 6113SOL    HW225339   1.119   1.873   7.064  0.7929  0.2191 -1.7608
 6114SOL     OW25340   2.214   6.867   0.289 -0.0051 -0.4857 -0.5899
 6114SOL    HW125341   2.240   6.942   0.350 -2.5965 -0.5280  0.6560
 6114SOL    HW225342   2.179   6.904   0.203 -1.0812 -0.2416 -0.0589
 6115SOL     OW25343   0.626   2.393   0.531  0.0393 -0.0036 -0.3979
 6115SOL    HW125344   0.707   2.451   0.532 -0.1989  0.3267  1.3290
 6115SOL    HW225345   0.594   2.383   0.437  1.3286  0.9068 -0.9557
 6116SOL     OW25346   3.851   4.964   6.324  0.4725  0.1124 -0.1692
 6116SOL    HW125347   3.892   4.929   6.240  0.5462  0.5936 -0.3340
 6116SOL    HW225348   3.751   4.961   6.316  0.4840  0.8181 -0.5458
 6117SOL     OW25349   2.641   3.910   4.792 -0.6244 -0.3432  0.4306
 6117SOL    HW125350   2.719   3.925   4.852  0.8283 -1.0194 -1.2641
 6117SOL    HW225351   2.621   3.813   4.786 -0.2576 -0.3497 -0.7935
 6118SOL     OW25352   6.953   0.946   1.328 -0.2478 -0.1806  0.8704
 6118SOL    HW125353   6.988   1.006   1.256 -2.0254  2.4031  2.0713
 6118SOL    HW225354   7.002   0.965   1.413 -0.0923 -1.1913  1.0053
 6119SOL     OW25355   7.353   2.049   5.568 -0.6950 -0.2780 -0.8351
 6119SOL    HW125356   7.402   2.008   5.491  0.1132  1.0522 -1.0420
 6119SOL    HW225357   7.288   2.116   5.535  1.0087  1.7117 -0.2945
 6120SOL     OW25358   7.179   1.948   6.248 -0.3431 -0.4594  0.0928
 6120SOL    HW125359   7.275   1.970   6.226 -0.1935 -0.8081  0.3964
 6120SOL    HW225360   7.129   1.930   6.163 -0.2821  0.2954 -0.1070
 6121SOL     OW25361   6.694   0.900   1.407 -0.0350 -0.0150  0.1867
 6121SOL    HW125362   6.684   0.800   1.414  1.1125 -0.2306 -1.1552
 6121SOL    HW225363   6.779   0.922   1.359 -1.5263  1.5717 -1.7988
 6122SOL     OW25364   0.889   6.410   6.360 -0.0544  0.2235 -0.5154
 6122SOL    HW125365   0.936   6.494   6.333 -1.2698  1.1022  0.0667
 6122SOL    HW225366   0.796   6.431   6.388 -0.0406 -1.1936  0.6498
 6123SOL     OW25367   0.293   3.537   5.887  0.7478 -0.5508 -0.1878
 6123SOL    HW125368   0.261   3.468   5.822  0.4338  1.1468 -1.8873
 6123SOL    HW225369   0.374   3.503   5.934  0.1519 -2.3752 -0.4333
 6124SOL     OW25370   4.286   0.792   6.040  0.6482 -0.5663 -0.0381
 6124SOL    HW125371   4.346   0.814   5.963  0.9211 -0.9973  0.0554
 6124SOL    HW225372   4.301   0.698   6.069  0.0557 -0.6220  0.1003
 6125SOL     OW25373   0.607   2.677   1.336 -0.0285 -0.0828  0.2162
 6125SOL    HW125374   0.647   2.767   1.317 -1.7205  0.2001 -2.2186
 6125SOL    HW225375   0.594   2.666   1.434  1.2593  1.8643  0.6248
 6126SOL     OW25376   5.755   5.444   0.279 -0.5164  0.0162 -0.2377
 6126SOL    HW125377   5.698   5.525   0.292  0.3321  0.7753 -1.1514
 6126SOL    HW225378   5.787   5.441   0.185  0.6935 -0.5738  0.1888
 6127SOL     OW25379   5.646   0.687   0.664  0.1105  0.6244 -0.3278
 6127SOL    HW125380   5.730   0.738   0.643 -0.0666  0.0423 -2.5149
 6127SOL    HW225381   5.585   0.744   0.718  1.8197  1.1327  1.1229
 6128SOL     OW25382   4.332   6.773   1.080 -0.0182 -0.0891  0.5057
 6128SOL    HW125383   4.412   6.724   1.113  1.0874 -0.0019 -1.9554
 6128SOL    HW225384   4.291   6.723   1.003 -0.1627  1.7020 -0.6181
 6129SOL     OW25385   7.262   0.204   6.991 -0.2895 -0.1057  0.0595
 6129SOL    HW125386   7.294   0.109   6.984 -1.5980 -0.6036  0.6627
 6129SOL    HW225387   7.226   0.233   6.902 -1.2705 -0.6877  0.2589
 6130SOL     OW25388   2.435   4.560   1.385 -0.1428  0.0725 -0.7816
 6130SOL    HW125389   2.469   4.624   1.317  0.1787 -0.6205 -1.2783
 6130SOL    HW225390   2.467   4.468   1.363 -0.2055 -0.1849  0.1945
 6131SOL     OW25391   6.237   2.206   3.508 -0.3915  0.2732 -0.1759
 6131SOL    HW125392   6.225   2.242   3.600  0.1833 -1.1556  0.4613
 6131SOL    HW225393   6.258   2.282   3.446 -3.5680  1.6302  0.2967
 6132SOL     OW25394   5.973   2.086   2.977 -0.0358  0.3039 -0.2387
 6132SOL    HW125395   6.038   2.119   3.045  0.8829 -3.2412  0.7256
 6132SOL    HW225396   6.021   2.028   2.911 -1.4394  1.3258 -2.2005
 6133SOL     OW25397   4.079   4.087   1.809  0.5499  0.2441  0.4262
 6133SOL    HW125398   4.018   4.011   1.787 -1.5385  2.5007 -1.9567
 6133SOL    HW225399   4.124   4.119   1.725  0.0434  2.7534  1.0756
 6134SOL     OW25400   6.230   0.538   3.045 -0.2670 -0.5594 -0.0953
 6134SOL    HW125401   6.234   0.560   2.948 -1.3732  2.8837  0.5676
 6134SOL    HW225402   6.293   0.597   3.095 -1.9449 -0.1480  1.5880
 6135SOL     OW25403   1.260   6.519   0.230 -0.0898  0.2199  0.8219
 6135SOL    HW125404   1.355   6.527   0.258 -0.2757  2.0159  1.0095
 6135SOL    HW225405   1.254   6.511   0.131  0.2966 -0.9259  0.8839
 6136SOL     OW25406   5.256   6.904   5.860  0.0587 -0.1347 -0.2562
 6136SOL    HW125407   5.168   6.906   5.812 -0.3122 -1.5783  0.3281
 6136SOL    HW225408   5.248   6.951   5.948 -0.2595 -0.6790  0.0055
 6137SOL     OW25409   0.319   5.208   4.406  0.0280 -0.6367 -0.0747
 6137SOL    HW125410   0.341   5.277   4.474 -1.8154 -0.8282  0.7488
 6137SOL    HW225411   0.276   5.129   4.451  1.3431 -1.9750 -1.0964
 6138SOL     OW25412   0.466   0.321   5.984 -0.2111  0.4061  0.4394
 6138SOL    HW125413   0.397   0.393   5.989 -0.4936  0.2181 -0.6672
 6138SOL    HW225414   0.428   0.236   6.021 -0.1163  0.6346  1.0746
 6139SOL     OW25415   2.192   5.775   3.777 -0.4448  0.4797 -0.0723
 6139SOL    HW125416   2.143   5.691   3.753 -0.3423  0.0323  1.2628
 6139SOL    HW225417   2.136   5.854   3.751 -1.4962 -0.0212  0.6411
 6140SOL     OW25418   4.120   6.171   6.282  0.0203 -0.0797 -0.3482
 6140SOL    HW125419   4.086   6.135   6.369 -0.7867 -0.0128 -0.6244
 6140SOL    HW225420   4.103   6.103   6.210  0.5001 -0.0510 -0.4852
 6141SOL     OW25421   4.831   1.857   3.905 -0.2981  0.5308  0.0512
 6141SOL    HW125422   4.896   1.798   3.859 -0.6324  1.1569 -1.2418
 6141SOL    HW225423   4.881   1.929   3.954  0.1280 -0.9918  1.9467
 6142SOL     OW25424   4.196   0.498   4.976 -0.0418  0.0284 -0.0121
 6142SOL    HW125425   4.213   0.424   4.911 -1.9616  1.4115 -2.1695
 6142SOL    HW225426   4.125   0.470   5.040 -0.7515 -0.0512 -0.8171
 6143SOL     OW25427   3.119   5.013   0.609 -0.2199  0.1706  0.1076
 6143SOL    HW125428   3.032   5.053   0.636 -0.5981 -1.1662  0.8803
 6143SOL    HW225429   3.163   4.972   0.688  2.3275  3.0411  0.2870
 6144SOL     OW25430   6.300   1.881   2.088 -0.4493  0.1600 -0.2968
 6144SOL    HW125431   6.218   1.933   2.066 -0.3073  0.1885 -0.7598
 6144SOL    HW225432   6.370   1.896   2.018  0.0447  0.3370  0.2277
 6145SOL     OW25433   1.602   3.479   2.753  0.1135 -0.1924 -0.7275
 6145SOL    HW125434   1.660   3.489   2.834  0.2287 -0.2419 -0.8036
 6145SOL    HW225435   1.608   3.562   2.697 -0.9705  0.3589 -0.0345
 6146SOL     OW25436   1.358   4.414   1.875 -0.3376 -0.2872 -0.5008
 6146SOL    HW125437   1.297   4.351   1.827 -0.2711  0.5369 -1.6763
 6146SOL    HW225438   1.303   4.479   1.928 -0.4605 -0.2248 -0.7020
 6147SOL     OW25439   2.152   2.539   2.638  0.5498  0.6591 -0.3156
 6147SOL    HW125440   2.056   2.543   2.609  0.4545  0.1003 -0.0962
 6147SOL    HW225441   2.194   2.457   2.599  0.3910 -0.1598  1.1922
 6148SOL     OW25442   5.387   1.193   4.156  0.2121  0.0894 -0.0679
 6148SOL    HW125443   5.351   1.238   4.238 -1.2463 -0.1886 -0.5563
 6148SOL    HW225444   5.360   1.097   4.156  0.7664 -0.0653 -0.5521
 6149SOL     OW25445   0.309   0.969   0.927  0.7923  0.1484  0.1823
 6149SOL    HW125446   0.235   1.013   0.875  1.7740  0.2193 -1.1873
 6149SOL    HW225447   0.292   0.871   0.934  0.8838  0.0685 -0.6872
 6150SOL     OW25448   6.517   3.713   6.898  0.5459  0.1365 -0.1198
 6150SOL    HW125449   6.442   3.664   6.853  0.7281  0.9385 -1.3094
 6150SOL    HW225450   6.480   3.791   6.949  0.5099  0.1876 -0.2236
 6151SOL     OW25451   1.182   3.545   6.731  0.2330 -0.1102 -0.4315
 6151SOL    HW125452   1.184   3.452   6.696  1.9212  0.9794 -3.4100
 6151SOL    HW225453   1.087   3.575   6.742 -0.3227 -1.0768 -2.5280
 6152SOL     OW25454   5.412   0.154   2.101 -0.9663  0.1642  0.5234
 6152SOL    HW125455   5.438   0.189   2.011  0.7687 -1.7788  0.2371
 6152SOL    HW225456   5.417   0.228   2.168  0.5338  0.9796 -0.4559
 6153SOL     OW25457   5.120   4.397   5.691  0.6089 -0.4058  0.7327
 6153SOL    HW125458   5.196   4.367   5.749  0.8708  1.4262  1.3826
 6153SOL    HW225459   5.068   4.317   5.660  2.7326 -1.6709  0.3415
 6154SOL     OW25460   2.768   6.771   6.301  0.1927 -0.0992 -0.0886
 6154SOL    HW125461   2.715   6.831   6.242  0.0828 -1.3317 -1.2739
 6154SOL    HW225462   2.863   6.803   6.305  0.0179  0.4453 -0.2862
 6155SOL     OW25463   3.440   0.450   2.072  0.1425  0.7967  0.2775
 6155SOL    HW125464   3.448   0.430   1.974  0.9233 -1.5076  0.7707
 6155SOL    HW225465   3.445   0.548   2.087 -0.4280  1.2020 -2.0428
 6156SOL     OW25466   6.013   6.976   2.119 -0.1684 -0.2090 -0.1571
 6156SOL    HW125467   6.085   6.907   2.127 -0.2657 -0.2541  0.3353
 6156SOL    HW225468   5.993   7.014   2.209  0.3843  0.9691 -0.5223
 6157SOL     OW25469   5.047   4.964   5.756  0.1037 -0.7220 -0.1155
 6157SOL    HW125470   5.130   5.020   5.751 -1.4117  1.5522 -0.7189
 6157SOL    HW225471   5.046   4.914   5.843  1.7589 -0.2312  0.2093
 6158SOL     OW25472   3.497   2.546   5.149 -0.1668 -0.0267 -0.0130
 6158SOL    HW125473   3.592   2.564   5.174  0.0813 -0.6656 -0.4749
 6158SOL    HW225474   3.495   2.484   5.070 -0.9565  0.5763 -0.4672
 6159SOL     OW25475   5.064   4.190   2.361  0.3334  0.0142  0.4837
 6159SOL    HW125476   5.043   4.285   2.336 -1.8880 -0.5536  0.1579
 6159SOL    HW225477   5.131   4.153   2.297  0.5744  1.0880  0.1013
 6160SOL     OW25478   3.366   5.633   2.093 -0.0516 -0.7222 -0.1349
 6160SOL    HW125479   3.378   5.586   2.180 -0.3934  0.4814  0.5684
 6160SOL    HW225480   3.452   5.633   2.043  0.3301 -0.7827  0.5195
 6161SOL     OW25481   3.746   3.842   4.509 -0.2551  0.0992 -0.5481
 6161SOL    HW125482   3.803   3.898   4.450  0.6716 -0.1206  0.1226
 6161SOL    HW225483   3.682   3.900   4.559 -1.7492  0.1774 -2.5266
 6162SOL     OW25484   0.592   2.734   6.641  0.2627 -0.9270  0.4309
 6162SOL    HW125485   0.675   2.789   6.650 -0.7227  0.7567 -0.3392
 6162SOL    HW225486   0.605   2.663   6.573  0.3995  0.7069 -1.3043
 6163SOL     OW25487   2.135   1.700   1.698  0.6217  0.2018 -0.4347
 6163SOL    HW125488   2.037   1.679   1.696  0.6787 -0.3299  1.4930
 6163SOL    HW225489   2.187   1.623   1.662  0.2782  1.0197 -2.7680
 6164SOL     OW25490   5.082   1.373   3.264  0.0624  0.0397 -0.7092
 6164SOL    HW125491   5.098   1.450   3.327  2.3615 -1.9081  1.1780
 6164SOL    HW225492   5.111   1.400   3.172  0.6051  1.5461 -0.1283
 6165SOL     OW25493   3.824   1.065   2.752  0.6255  0.4168 -0.0260
 6165SOL    HW125494   3.803   1.157   2.784  0.7492  0.3918  0.1293
 6165SOL    HW225495   3.781   0.998   2.812  1.7874  0.3572  0.7598
 6166SOL     OW25496   4.333   0.531   2.321 -0.1233  0.3380 -0.3220
 6166SOL    HW125497   4.346   0.460   2.390 -0.0342 -0.0185 -0.7075
 6166SOL    HW225498   4.240   0.527   2.286 -0.0917  0.3581 -0.4068
 6167SOL     OW25499   2.702   2.521   2.395 -0.0964 -0.7648 -0.2074
 6167SOL    HW125500   2.649   2.604   2.412  2.1731  0.0398  3.5481
 6167SOL    HW225501   2.750   2.530   2.308 -0.7270  1.4195 -0.3619
 6168SOL     OW25502   1.892   0.918   1.046  0.5123 -0.2264  0.5351
 6168SOL    HW125503   1.926   0.925   0.952  0.0104 -1.1631  0.2788
 6168SOL    HW225504   1.796   0.893   1.044  0.0882  1.3131  1.2835
 6169SOL     OW25505   1.405   6.407   7.154  0.4431  0.2863  0.0297
 6169SOL    HW125506   1.455   6.461   7.087  0.3702 -0.3124 -0.5088
 6169SOL    HW225507   1.377   6.320   7.113  1.1540 -0.4571  1.0903
 6170SOL     OW25508   6.267   0.657   0.348 -0.0348  0.0113 -0.2419
 6170SOL    HW125509   6.199   0.584   0.343  0.2841 -0.2400 -0.8569
 6170SOL    HW225510   6.349   0.624   0.395 -0.5469  0.4792  1.0004
 6171SOL     OW25511   5.951   3.530   1.428 -0.6210 -0.0873 -0.3769
 6171SOL    HW125512   5.865   3.541   1.478 -0.9643 -0.2046 -0.9330
 6171SOL    HW225513   5.942   3.571   1.337 -0.5848 -1.4498 -1.0015
 6172SOL     OW25514   4.209   5.004   5.402  0.5400  0.0079  0.2033
 6172SOL    HW125515   4.117   4.984   5.368  0.4755  1.4415 -0.5212
 6172SOL    HW225516   4.266   4.923   5.393 -0.1856 -0.3818 -0.9920
 6173SOL     OW25517   6.009   3.912   1.789 -0.4147 -0.0428  0.1147
 6173SOL    HW125518   6.034   3.818   1.810 -1.9784 -0.3504  0.6612
 6173SOL    HW225519   5.929   3.912   1.728 -0.5606  0.9352  0.3046
 6174SOL     OW25520   2.531   6.459   6.322 -0.0482 -0.3704 -0.0669
 6174SOL    HW125521   2.487   6.544   6.294  1.2579 -0.2040 -1.6469
 6174SOL    HW225522   2.470   6.382   6.303 -0.6633  0.0791  0.0663
 6175SOL     OW25523   4.436   4.451   1.649 -0.2952 -0.2071  0.0306
 6175SOL    HW125524   4.521   4.469   1.699 -0.2799 -1.1401  0.3516
 6175SOL    HW225525   4.359   4.487   1.700 -0.0593  1.0574 -0.4827
 6176SOL     OW25526   4.610   2.278   5.092  0.2212 -0.1422 -0.0384
 6176SOL    HW125527   4.687   2.262   5.031  0.9965  1.5478  0.4637
 6176SOL    HW225528   4.612   2.213   5.167  0.7360 -0.5659 -0.4204
 6177SOL     OW25529   2.189   6.114   5.544  0.6175  0.1324 -0.8761
 6177SOL    HW125530   2.279   6.079   5.569  0.5210  0.6301  0.2290
 6177SOL    HW225531   2.118   6.049   5.573  0.4856  0.8556  0.4917
 6178SOL     OW25532   4.357   1.685   0.352  0.2137 -0.3258 -0.0519
 6178SOL    HW125533   4.431   1.736   0.396  0.4972 -0.2206 -0.6429
 6178SOL    HW225534   4.366   1.693   0.253 -1.0969  0.4101 -0.1166
 6179SOL     OW25535   4.153   3.351   0.320  0.0758  0.9090  0.1548
 6179SOL    HW125536   4.072   3.403   0.296 -1.5740 -1.2395  0.8712
 6179SOL    HW225537   4.181   3.372   0.414 -0.3324  0.8426  0.2921
 6180SOL     OW25538   5.934   1.567   3.754  0.2452  0.0001  0.3892
 6180SOL    HW125539   5.979   1.487   3.795 -0.2766 -0.2262  0.5176
 6180SOL    HW225540   5.979   1.590   3.668 -0.5018 -1.2882 -0.3471
 6181SOL     OW25541   6.269   5.462   6.701  0.2004  0.0916 -0.4157
 6181SOL    HW125542   6.358   5.427   6.673  0.0520  0.4285 -1.3327
 6181SOL    HW225543   6.272   5.562   6.704  0.3026  0.0494  1.0944
 6182SOL     OW25544   4.865   3.595   5.347 -0.4372  0.1031 -0.1999
 6182SOL    HW125545   4.843   3.542   5.429 -1.4885 -1.4920 -1.4703
 6182SOL    HW225546   4.962   3.617   5.346 -0.2983 -0.4296  1.1554
 6183SOL     OW25547   1.581   5.261   1.106 -0.0937 -0.4252  0.0651
 6183SOL    HW125548   1.556   5.277   1.010  1.6706 -0.8398 -0.4999
 6183SOL    HW225549   1.508   5.211   1.152 -0.8243 -0.5099 -1.1665
 6184SOL     OW25550   4.956   5.393   7.151  0.4524 -0.3444 -0.4610
 6184SOL    HW125551   4.996   5.475   7.112 -2.9081  1.3198 -0.6362
 6184SOL    HW225552   4.961   5.397   7.251 -0.9149  0.7857 -0.4171
 6185SOL     OW25553   5.462   1.148   0.010  0.1039  0.2980 -0.4108
 6185SOL    HW125554   5.525   1.104   0.074  2.2457  2.4553 -0.9261
 6185SOL    HW225555   5.400   1.208   0.061 -1.8192 -2.0789  0.1319
 6186SOL     OW25556   0.394   6.780   5.207 -0.1602 -0.0019  0.4403
 6186SOL    HW125557   0.466   6.801   5.274  0.2440  0.6234 -0.1795
 6186SOL    HW225558   0.323   6.725   5.251  0.9761 -1.1150  0.9070
 6187SOL     OW25559   2.558   1.270   6.324 -0.0292  0.6516 -0.1175
 6187SOL    HW125560   2.556   1.282   6.224 -0.2268 -1.3936 -0.3785
 6187SOL    HW225561   2.475   1.308   6.363 -0.1181  1.1532 -0.7763
 6188SOL     OW25562   2.156   6.489   4.579 -0.4247 -0.4467 -0.2478
 6188SOL    HW125563   2.198   6.553   4.515 -0.2753 -1.2089 -0.9248
 6188SOL    HW225564   2.183   6.395   4.555 -0.3414 -0.7319  0.9540
 6189SOL     OW25565   2.299   5.757   2.710 -0.3297 -0.2786  0.3176
 6189SOL    HW125566   2.296   5.753   2.810 -0.9398  0.0517  0.3123
 6189SOL    HW225567   2.218   5.713   2.672 -0.3206  0.0006 -0.0252
 6190SOL     OW25568   3.473   4.840   0.665 -0.4773 -0.0799 -0.3078
 6190SOL    HW125569   3.570   4.848   0.646 -0.2097  0.1252  1.1031
 6190SOL    HW225570   3.425   4.812   0.582  0.8957 -1.0597 -0.7817
 6191SOL     OW25571   5.482   3.245   5.062 -0.2990  0.1093 -0.2766
 6191SOL    HW125572   5.390   3.209   5.049  0.0177 -1.3015  1.2066
 6191SOL    HW225573   5.548   3.188   5.013  0.0214 -0.2830  0.6017
 6192SOL     OW25574   5.459   5.817   2.669 -0.4584 -0.4407  0.3647
 6192SOL    HW125575   5.498   5.744   2.725  2.0408  0.4257 -0.1475
 6192SOL    HW225576   5.506   5.820   2.581 -2.4207  0.0202 -0.6919
 6193SOL     OW25577   2.680   3.090   2.449  0.1996  0.0744 -0.0140
 6193SOL    HW125578   2.587   3.110   2.418 -0.0586  0.5623  1.0462
 6193SOL    HW225579   2.676   3.051   2.541  1.0152 -0.3810 -0.1706
 6194SOL     OW25580   6.856   5.745   3.317  0.0665 -0.2502  0.0887
 6194SOL    HW125581   6.778   5.800   3.345  0.4784  0.2442  0.2621
 6194SOL    HW225582   6.839   5.708   3.226  0.4172  1.3695 -0.6514
 6195SOL     OW25583   7.316   6.809   1.262  0.1999 -0.0304  0.1634
 6195SOL    HW125584   7.291   6.906   1.271 -0.3771 -0.3524  2.1465
 6195SOL    HW225585   7.411   6.796   1.289 -0.2481 -0.2938  1.6419
 6196SOL     OW25586   4.861   5.933   4.790  0.0318  0.0318  0.0647
 6196SOL    HW125587   4.842   5.852   4.845  0.1348 -0.5032 -0.6761
 6196SOL    HW225588   4.863   6.014   4.849 -0.9297 -0.3849  0.6916
 6197SOL     OW25589   4.004   1.907   3.604 -0.2065  0.1534  0.5086
 6197SOL    HW125590   3.965   1.852   3.678 -1.9937  0.1488 -0.4097
 6197SOL    HW225591   3.999   1.855   3.518 -1.6707  1.6216 -0.3233
 6198SOL     OW25592   1.717   6.653   6.144 -0.2542  0.1011  0.4140
 6198SOL    HW125593   1.728   6.599   6.228  0.5681 -1.3036 -0.5657
 6198SOL    HW225594   1.795   6.715   6.135  0.4250 -0.8095 -0.0602
 6199SOL     OW25595   2.494   0.279   5.898 -0.3160 -0.4817 -0.1164
 6199SOL    HW125596   2.443   0.364   5.908 -1.6124 -0.8851 -2.7100
 6199SOL    HW225597   2.531   0.274   5.805  2.4909 -1.2851  0.9889
 6200SOL     OW25598   4.276   2.897   5.841  0.3203 -0.0507  0.2178
 6200SOL    HW125599   4.199   2.960   5.852 -0.0056 -0.3503 -0.3242
 6200SOL    HW225600   4.359   2.939   5.877  0.3021  1.0622 -1.0076
 6201SOL     OW25601   5.243   0.235   1.356 -0.5779  0.0992  0.3696
 6201SOL    HW125602   5.173   0.295   1.395  0.9187  2.2834 -0.2069
 6201SOL    HW225603   5.293   0.284   1.284 -0.0407 -2.2185 -0.8992
 6202SOL     OW25604   4.788   3.416   5.526 -0.6503  0.3621  0.4186
 6202SOL    HW125605   4.690   3.414   5.503 -0.5355 -0.7270  0.0049
 6202SOL    HW225606   4.834   3.337   5.485  0.6542  1.5543 -0.4504
 6203SOL     OW25607   0.112   5.786   3.192  0.0049  0.2728 -0.3990
 6203SOL    HW125608   0.151   5.711   3.138  1.1073 -0.1880  1.0057
 6203SOL    HW225609   0.075   5.749   3.277  0.2130  1.2779  0.1319
 6204SOL     OW25610   6.259   6.602   0.027 -0.2147 -0.2317 -0.2232
 6204SOL    HW125611   6.217   6.515  -0.001 -0.0095 -0.3649 -0.1230
 6204SOL    HW225612   6.358   6.590   0.033 -0.2491 -0.1939  0.5075
 6205SOL     OW25613   2.709   3.542   0.786 -0.0666 -0.1327  0.4388
 6205SOL    HW125614   2.713   3.442   0.787 -0.4432 -0.1725 -1.4107
 6205SOL    HW225615   2.669   3.573   0.700  0.0421  1.6173  1.0086
 6206SOL     OW25616   5.693   7.276   4.232  0.2851  0.0269  0.0967
 6206SOL    HW125617   5.716   7.263   4.135  0.8206 -0.5140  0.2919
 6206SOL    HW225618   5.702   7.189   4.280 -2.2122 -0.2189  0.1912
 6207SOL     OW25619   2.596   2.547   0.191  0.1840 -0.1874 -0.0176
 6207SOL    HW125620   2.673   2.486   0.175  1.4099  1.1761  0.5757
 6207SOL    HW225621   2.618   2.638   0.158 -0.9374  0.3584  0.7011
 6208SOL     OW25622   2.878   3.451   2.265  0.3271  0.4893  0.0769
 6208SOL    HW125623   2.838   3.368   2.228 -1.1279  0.6783  1.2052
 6208SOL    HW225624   2.822   3.530   2.239  0.4978  0.8671  0.8246
 6209SOL     OW25625   2.364   1.190   3.541  0.3371  0.1077  0.0430
 6209SOL    HW125626   2.444   1.240   3.574  1.7358 -1.4792 -0.8689
 6209SOL    HW225627   2.356   1.103   3.590  0.3168 -0.6174 -1.2288
 6210SOL     OW25628   4.496   4.851   3.537  0.1522 -0.5849  0.0347
 6210SOL    HW125629   4.533   4.944   3.539 -0.0184 -0.4665 -1.7050
 6210SOL    HW225630   4.531   4.803   3.457 -3.6074 -0.3955 -1.8103
 6211SOL     OW25631   5.708   2.071   2.992  0.4588 -0.9577 -0.1621
 6211SOL    HW125632   5.806   2.067   2.973  0.3326 -1.0150 -0.8022
 6211SOL    HW225633   5.670   1.979   2.993  0.3027 -0.8964 -0.4728
 6212SOL     OW25634   6.971   6.623   6.679 -0.3533 -0.1956 -0.1950
 6212SOL    HW125635   7.005   6.579   6.762 -0.1134  0.0523 -0.1638
 6212SOL    HW225636   7.012   6.713   6.669 -0.2953 -0.2696 -0.6429
 6213SOL     OW25637   1.214   1.941   1.534 -0.1782 -0.6725  0.1758
 6213SOL    HW125638   1.200   2.004   1.459  1.4133  0.4087  0.7729
 6213SOL    HW225639   1.262   1.859   1.501  1.6548  0.3545  0.2414
 6214SOL     OW25640   5.197   3.180   3.279  0.3558 -0.1574  0.1349
 6214SOL    HW125641   5.131   3.253   3.300 -0.9766 -0.8643 -1.4129
 6214SOL    HW225642   5.167   3.095   3.322  1.3422 -0.0354  1.0708
 6215SOL     OW25643   0.317   2.923   5.697  0.4047  0.1967 -0.2208
 6215SOL    HW125644   0.307   2.914   5.796 -0.2064 -0.7777 -0.3587
 6215SOL    HW225645   0.248   2.986   5.662 -0.0935 -0.3060 -0.1572
 6216SOL     OW25646   2.074   1.451   0.669  0.7223  0.2243  0.1804
 6216SOL    HW125647   2.153   1.470   0.727  1.1731 -0.1570 -0.2996
 6216SOL    HW225648   2.094   1.374   0.609 -0.4697 -0.6865  0.9189
 6217SOL     OW25649   4.692   4.229   6.406  0.1117 -0.7750 -0.0764
 6217SOL    HW125650   4.774   4.263   6.451 -0.5668  0.9340 -0.0797
 6217SOL    HW225651   4.673   4.135   6.436  1.7684 -1.0085  0.2898
 6218SOL     OW25652   5.488   0.760   6.239 -0.3065  0.1434  0.0840
 6218SOL    HW125653   5.482   0.667   6.275  1.7361  0.6395  1.8262
 6218SOL    HW225654   5.505   0.757   6.141 -2.0102 -1.2867 -0.1948
 6219SOL     OW25655   2.698   5.948   7.183 -0.6743 -0.4325  0.5738
 6219SOL    HW125656   2.712   6.036   7.229  0.8483 -0.8782  1.0123
 6219SOL    HW225657   2.732   5.875   7.242 -1.1423 -1.2490 -0.1585
 6220SOL     OW25658   1.403   5.876   0.009 -0.8640  0.3671 -0.0404
 6220SOL    HW125659   1.363   5.862   0.100 -0.5649 -0.0999  0.0220
 6220SOL    HW225660   1.384   5.796  -0.048 -1.2965  0.7786 -0.4834
 6221SOL     OW25661   6.706   6.963   2.754 -0.4351 -0.0141  0.0714
 6221SOL    HW125662   6.715   6.864   2.751  0.4248  0.0655 -0.0824
 6221SOL    HW225663   6.649   6.990   2.831 -0.0331 -0.5822  0.5604
 6222SOL     OW25664   3.039   1.911   5.347  0.3758 -0.4619 -0.0243
 6222SOL    HW125665   3.090   1.955   5.273 -2.7507 -0.5089 -2.2559
 6222SOL    HW225666   3.103   1.859   5.404  2.8295 -0.5214 -2.7197
 6223SOL     OW25667   2.369   6.851   5.058  0.3960  0.2401  0.1396
 6223SOL    HW125668   2.346   6.945   5.082 -2.1785  0.0915 -1.5613
 6223SOL    HW225669   2.354   6.791   5.137 -0.0786  0.9226  0.5678
 6224SOL     OW25670   3.404   0.727   2.121  0.3606  0.2700  0.2902
 6224SOL    HW125671   3.492   0.726   2.169 -0.0057  1.1694  1.0042
 6224SOL    HW225672   3.417   0.765   2.029  0.9527 -0.8583 -0.0947
 6225SOL     OW25673   5.545   6.067   4.571 -0.2306 -0.3499  0.3311
 6225SOL    HW125674   5.525   6.165   4.561 -0.2767 -0.3157  0.7647
 6225SOL    HW225675   5.570   6.029   4.482  2.4556  0.6593  0.6016
 6226SOL     OW25676   2.814   4.848   0.714 -0.6860 -0.6296 -0.1395
 6226SOL    HW125677   2.725   4.822   0.750 -0.4882 -0.5309  0.4399
 6226SOL    HW225678   2.828   4.807   0.624 -1.3672 -0.5348 -0.2877
 6227SOL     OW25679   0.083   4.362   5.088 -0.1585  0.3035 -0.3748
 6227SOL    HW125680   0.125   4.387   5.175 -0.0912 -1.0144 -0.0233
 6227SOL    HW225681   0.084   4.441   5.027 -1.5594  1.6794  1.3230
 6228SOL     OW25682   6.993   4.351   5.032 -0.9120 -0.0675  0.2258
 6228SOL    HW125683   7.068   4.307   5.081  0.0455  1.5733  0.2873
 6228SOL    HW225684   7.029   4.393   4.948 -1.8857  0.1712 -0.0747
 6229SOL     OW25685   0.967   5.736   0.136 -0.2930  0.2713 -0.3795
 6229SOL    HW125686   1.021   5.763   0.055 -0.3012 -0.6154 -0.6852
 6229SOL    HW225687   0.910   5.657   0.113  0.9102 -1.0152  0.9515
 6230SOL     OW25688   4.955   4.386   0.490  0.1290 -0.3396 -1.0755
 6230SOL    HW125689   4.917   4.357   0.578  0.5935  0.2493 -0.6756
 6230SOL    HW225690   4.905   4.342   0.415 -0.4011 -0.6803 -0.5180
 6231SOL     OW25691   3.692   2.636   4.583  0.3288  0.1385  0.3104
 6231SOL    HW125692   3.650   2.716   4.627 -0.3481 -1.1904  2.1034
 6231SOL    HW225693   3.791   2.641   4.592  0.2202  0.1334  1.5491
 6232SOL     OW25694   4.876   2.006   5.946 -0.6140  0.3438 -0.9373
 6232SOL    HW125695   4.973   2.003   5.918 -0.6226  0.1659 -0.9510
 6232SOL    HW225696   4.823   2.052   5.875 -0.6271 -0.0603 -1.1977
 6233SOL     OW25697   4.322   0.536   4.327 -0.4144 -0.0811  0.3211
 6233SOL    HW125698   4.308   0.575   4.236 -1.7224 -0.8520  0.1831
 6233SOL    HW225699   4.242   0.554   4.384 -1.2231 -2.8331  0.1446
 6234SOL     OW25700   1.540   2.147   0.551  0.3457 -0.3677  0.0041
 6234SOL    HW125701   1.479   2.144   0.630  1.0537  0.6446  0.6117
 6234SOL    HW225702   1.548   2.242   0.519  1.2097 -0.5580 -0.3609
 6235SOL     OW25703   0.228   0.025   5.524  0.0630  0.6676  0.1474
 6235SOL    HW125704   0.277   0.034   5.611  0.1158 -0.0967  0.2005
 6235SOL    HW225705   0.137   0.063   5.534  0.1321  0.7500  0.4880
 6236SOL     OW25706   5.528   3.969   6.349 -0.4023 -0.2925 -0.3288
 6236SOL    HW125707   5.566   3.988   6.258 -0.8694 -0.2276 -0.5115
 6236SOL    HW225708   5.602   3.963   6.416  0.0162 -1.0963 -0.8508
 6237SOL     OW25709   4.668   3.302   2.371  0.0127 -0.2231 -0.5799
 6237SOL    HW125710   4.672   3.254   2.284 -2.9438 -0.5325 -0.6026
 6237SOL    HW225711   4.712   3.247   2.442 -1.1416 -1.8491 -1.1010
 6238SOL     OW25712   1.656   3.443   0.846 -0.7494  0.2956 -0.1141
 6238SOL    HW125713   1.631   3.509   0.917 -1.4085 -1.9479  1.7733
 6238SOL    HW225714   1.730   3.384   0.880 -0.3089 -0.1026 -1.7128
 6239SOL     OW25715   4.910   6.208   7.165  0.7640 -0.4830 -0.2613
 6239SOL    HW125716   4.852   6.276   7.121  1.5296  0.0219 -0.5179
 6239SOL    HW225717   4.863   6.121   7.171  0.4251 -0.3794 -1.4921
 6240SOL     OW25718   2.308   2.924   2.561 -0.0652 -0.0602  0.1165
 6240SOL    HW125719   2.237   2.951   2.626 -1.1303 -0.7850 -0.7434
 6240SOL    HW225720   2.297   2.828   2.537  0.1345  0.2817 -1.3793
 6241SOL     OW25721   5.030   0.852   5.680 -0.5919  0.1238 -0.6817
 6241SOL    HW125722   5.060   0.810   5.766 -0.6026  1.3646 -0.0604
 6241SOL    HW225723   4.962   0.922   5.700 -2.7675 -1.5559 -1.9435
 6242SOL     OW25724   0.679   0.985   5.893 -0.1601  0.1275 -0.5452
 6242SOL    HW125725   0.740   0.970   5.971  0.4089 -0.4722 -1.1097
 6242SOL    HW225726   0.721   1.048   5.829 -0.7617  0.8605 -0.2271
 6243SOL     OW25727   4.512   7.161   1.400  0.5507  0.3286 -0.5949
 6243SOL    HW125728   4.552   7.136   1.313  2.8667  2.5246 -0.2014
 6243SOL    HW225729   4.575   7.136   1.474 -0.0289  1.2672  0.2252
 6244SOL     OW25730   4.614   2.554   5.151 -0.1521  0.4668 -0.4827
 6244SOL    HW125731   4.700   2.605   5.154 -0.4570  0.9119  0.8826
 6244SOL    HW225732   4.634   2.457   5.134  0.6581  0.4816  0.3450
 6245SOL     OW25733   0.738   7.240   5.505  0.2176  0.3747 -0.1908
 6245SOL    HW125734   0.797   7.192   5.571 -0.5558  0.3876  0.5105
 6245SOL    HW225735   0.750   7.199   5.415 -1.2435 -1.8691  0.6056
 6246SOL     OW25736   5.513   3.518   0.494 -0.0313  0.0882 -0.0354
 6246SOL    HW125737   5.453   3.591   0.525  0.1189  0.4627 -0.6196
 6246SOL    HW225738   5.556   3.474   0.573  0.7025  1.3283  0.2753
 6247SOL     OW25739   4.721   6.343   4.959  0.0153 -0.4175  0.0374
 6247SOL    HW125740   4.728   6.311   4.864  2.7757  0.2165  0.0151
 6247SOL    HW225741   4.641   6.300   5.002 -1.3205 -0.6537 -2.5732
 6248SOL     OW25742   4.758   2.215   4.219 -0.2260  0.1734 -0.4218
 6248SOL    HW125743   4.669   2.170   4.209  0.5706 -1.4287 -0.5334
 6248SOL    HW225744   4.747   2.314   4.211 -1.8309 -0.0856 -1.6932
 6249SOL     OW25745   2.829   2.674   6.773  0.4857  0.0131  0.1945
 6249SOL    HW125746   2.800   2.581   6.752 -2.4753  1.0013 -0.2603
 6249SOL    HW225747   2.766   2.739   6.731  1.9356  2.2285  1.3516
 6250SOL     OW25748   1.289   3.616   6.021  0.0960 -0.2004 -0.2834
 6250SOL    HW125749   1.314   3.580   6.111 -2.1726 -0.3967  0.3039
 6250SOL    HW225750   1.303   3.545   5.952  0.5208 -0.5142  0.1203
 6251SOL     OW25751   6.714   4.712   2.951 -0.1574 -0.5900 -0.4432
 6251SOL    HW125752   6.718   4.707   2.852  0.0766  0.5974 -0.5098
 6251SOL    HW225753   6.623   4.687   2.983 -0.1646 -1.1874 -0.9423
 6252SOL     OW25754   0.401   0.322   5.712  0.0218  0.1453  0.2577
 6252SOL    HW125755   0.417   0.381   5.791  0.6299 -0.7734  0.8252
 6252SOL    HW225756   0.346   0.371   5.644  0.6037  1.3969  0.6797
 6253SOL     OW25757   0.688   5.975   1.019  0.5163  0.1748 -0.6288
 6253SOL    HW125758   0.601   5.988   1.068  1.3919 -0.9669  1.3045
 6253SOL    HW225759   0.729   6.064   1.001 -0.5711  0.6868 -0.6601
 6254SOL     OW25760   2.690   3.652   2.188 -0.3025 -0.2330 -0.3056
 6254SOL    HW125761   2.613   3.711   2.214 -0.4989 -0.5933 -0.0711
 6254SOL    HW225762   2.663   3.595   2.111 -0.2026 -0.2153 -0.3534
 6255SOL     OW25763   4.771   4.867   5.570 -0.0369 -0.1168  0.1145
 6255SOL    HW125764   4.815   4.785   5.535 -0.4657 -0.3651  0.1529
 6255SOL    HW225765   4.812   4.893   5.657 -0.3629 -0.6801  0.4352
 6256SOL     OW25766   6.931   5.918   6.053 -0.1495  0.6827  0.6255
 6256SOL    HW125767   6.848   5.873   6.020 -0.0097  0.6080  0.3697
 6256SOL    HW225768   7.006   5.852   6.054 -0.0620  0.7841  0.7286
 6257SOL     OW25769   2.691   4.152   5.562  0.2096 -0.1522 -0.3870
 6257SOL    HW125770   2.700   4.054   5.544 -1.4590 -0.3023 -0.4280
 6257SOL    HW225771   2.742   4.202   5.492 -1.7336 -0.9099 -2.4184
 6258SOL     OW25772   1.503   0.862   5.802  0.5233 -0.0782 -0.3547
 6258SOL    HW125773   1.523   0.773   5.842 -1.4468 -0.4732 -0.1869
 6258SOL    HW225774   1.581   0.893   5.748  0.9753 -2.2133 -0.9627
 6259SOL     OW25775   6.798   2.488   5.857 -0.1794  0.1227  0.2295
 6259SOL    HW125776   6.846   2.526   5.936 -1.8618  2.2028  0.2962
 6259SOL    HW225777   6.854   2.501   5.775  0.3678  0.4430  0.6543
 6260SOL     OW25778   3.977   6.196   2.064 -0.3656 -0.3789 -0.2826
 6260SOL    HW125779   3.981   6.294   2.084  0.4797 -0.1905 -1.3308
 6260SOL    HW225780   3.905   6.177   1.998  0.2691 -0.2852 -1.0146
 6261SOL     OW25781   4.072   1.476   0.863  0.2283  0.1328  0.7641
 6261SOL    HW125782   4.054   1.452   0.768 -0.9482  1.9499  0.5136
 6261SOL    HW225783   4.007   1.429   0.923 -0.1128  0.3180  0.5361
 6262SOL     OW25784   3.761   6.249   6.406 -0.2611  0.3178 -0.1878
 6262SOL    HW125785   3.716   6.296   6.482 -0.4674  0.2723 -0.2815
 6262SOL    HW225786   3.838   6.196   6.441 -1.1190 -0.7034  0.1612
 6263SOL     OW25787   6.641   4.549   6.232 -0.0779  0.3413  0.4851
 6263SOL    HW125788   6.575   4.582   6.165  0.5974  0.6578 -0.0253
 6263SOL    HW225789   6.732   4.584   6.210  0.4295 -0.8471  0.6375
 6264SOL     OW25790   0.024   3.630   1.419  0.4362  0.5750 -0.0855
 6264SOL    HW125791   0.116   3.667   1.408 -0.0681  2.1142  0.7664
 6264SOL    HW225792   0.029   3.537   1.455  1.6388  0.8102  0.3615
 6265SOL     OW25793   0.575   5.879   6.266  0.1600  0.0474  0.2606
 6265SOL    HW125794   0.654   5.834   6.224  1.1985  2.9587 -0.9687
 6265SOL    HW225795   0.598   5.907   6.359 -0.6292 -2.2329  1.1890
 6266SOL     OW25796   7.133   3.427   0.425 -0.3804  0.2169  0.2915
 6266SOL    HW125797   7.223   3.413   0.465 -0.8530 -2.0915  0.6467
 6266SOL    HW225798   7.119   3.524   0.406  2.4537  0.5049 -0.4630
 6267SOL     OW25799   1.179   0.286   1.872 -0.2415  0.4480 -0.9482
 6267SOL    HW125800   1.150   0.274   1.967 -0.4768 -0.3166 -1.1153
 6267SOL    HW225801   1.100   0.277   1.812 -0.0385  0.6192 -1.2435
 6268SOL     OW25802   1.241   1.421   3.389  0.6736  0.4079 -0.2868
 6268SOL    HW125803   1.188   1.506   3.396  0.4261  0.2153  0.1883
 6268SOL    HW225804   1.338   1.442   3.399  0.6287  0.6667 -0.3897
 6269SOL     OW25805   4.532   2.568   3.232 -0.8413  0.1926  0.0219
 6269SOL    HW125806   4.454   2.627   3.209 -1.1051 -0.5946 -1.1595
 6269SOL    HW225807   4.498   2.482   3.270 -0.6548 -0.8487 -2.0686
 6270SOL     OW25808   6.766   3.401   0.194  0.3377  0.1525 -0.4576
 6270SOL    HW125809   6.701   3.329   0.220 -0.6933  0.9795 -0.7192
 6270SOL    HW225810   6.779   3.399   0.095 -0.7582  1.1912 -0.6428
 6271SOL     OW25811   5.960   5.779   4.704 -0.4567 -0.1989 -0.0466
 6271SOL    HW125812   5.922   5.696   4.663 -0.9185  0.5008 -1.0830
 6271SOL    HW225813   6.047   5.801   4.659 -0.6897  0.2713 -0.2646
 6272SOL     OW25814   0.943   6.216   6.189 -0.6130  0.3023 -0.0802
 6272SOL    HW125815   0.913   6.290   6.248 -0.3319  1.0163 -0.8284
 6272SOL    HW225816   0.947   6.248   6.094 -2.7185 -1.3085 -0.7513
 6273SOL     OW25817   2.549   4.626   4.607  0.1608 -0.0785 -0.1474
 6273SOL    HW125818   2.537   4.664   4.699  0.2545  0.4480 -0.3574
 6273SOL    HW225819   2.578   4.530   4.615  0.3866  0.0298  0.3716
 6274SOL     OW25820   5.753   0.091   1.127  0.3189 -0.0702  0.4822
 6274SOL    HW125821   5.767   0.167   1.191  0.7726 -0.6036  1.0276
 6274SOL    HW225822   5.824   0.023   1.141  0.2713 -0.3151 -0.4264
 6275SOL     OW25823   5.656   3.162   7.274 -0.4587 -0.3714  0.1872
 6275SOL    HW125824   5.642   3.223   7.197 -3.1350  0.4789  1.2983
 6275SOL    HW225825   5.628   3.069   7.248 -0.0367 -0.3784 -0.2678
 6276SOL     OW25826   5.635   6.626   4.086 -0.0776 -0.2345 -0.3462
 6276SOL    HW125827   5.620   6.718   4.122  0.8833 -0.0032 -0.5063
 6276SOL    HW225828   5.636   6.560   4.161  0.3049  0.0327 -0.1142
 6277SOL     OW25829   5.249   2.336   3.375 -0.7684 -0.0157 -0.1941
 6277SOL    HW125830   5.149   2.325   3.373 -0.7432 -0.3690  0.3693
 6277SOL    HW225831   5.291   2.262   3.324 -0.8002  0.2221 -0.5670
 6278SOL     OW25832   5.189   6.533   4.709 -0.6657 -0.6104  0.0088
 6278SOL    HW125833   5.236   6.445   4.704 -0.5928 -0.5005 -1.4894
 6278SOL    HW225834   5.102   6.527   4.661 -0.1000  0.4701 -1.1979
 6279SOL     OW25835   2.530   3.417   1.275 -0.0907 -0.2212 -0.1156
 6279SOL    HW125836   2.463   3.390   1.206 -1.5291  0.2050  1.0762
 6279SOL    HW225837   2.482   3.453   1.355  1.6071  1.2488  0.2761
 6280SOL     OW25838   2.565   0.934   6.766 -0.1316  0.3322 -0.2553
 6280SOL    HW125839   2.590   0.843   6.797 -0.7491 -0.8772 -3.1642
 6280SOL    HW225840   2.634   0.968   6.701 -0.7614  1.2426 -0.4660
 6281SOL     OW25841   3.294   2.035   5.706 -0.2049  0.2818 -0.4741
 6281SOL    HW125842   3.256   2.108   5.649 -1.5145 -0.8588 -1.1027
 6281SOL    HW225843   3.263   1.946   5.672  0.2057 -0.5049  1.1248
 6282SOL     OW25844   4.099   0.434   6.536 -0.5049  0.3307  0.6275
 6282SOL    HW125845   4.171   0.399   6.596 -1.7161  1.5339  2.8276
 6282SOL    HW225846   4.096   0.379   6.452  1.5616 -1.0433  1.4179
 6283SOL     OW25847   0.463   2.864   6.121 -0.3807 -0.3733 -0.2214
 6283SOL    HW125848   0.552   2.908   6.113 -1.3629  1.9221  1.0503
 6283SOL    HW225849   0.460   2.811   6.206 -0.2691 -0.3818 -0.2231
 6284SOL     OW25850   4.929   0.514   7.152 -0.0543 -0.3156  0.1689
 6284SOL    HW125851   4.830   0.505   7.144 -0.2000  1.1776  0.1981
 6284SOL    HW225852   4.972   0.479   7.069 -0.6246 -0.6145 -0.0056
 6285SOL     OW25853   6.719   5.610   3.757  0.0561  0.7000 -0.7118
 6285SOL    HW125854   6.745   5.593   3.662  2.0455 -0.5780  0.0268
 6285SOL    HW225855   6.766   5.545   3.817 -2.8363  0.0890  0.9876
 6286SOL     OW25856   3.512   0.375   0.458  0.5666  0.9045 -0.5183
 6286SOL    HW125857   3.504   0.285   0.501 -0.8319  0.0310 -2.5227
 6286SOL    HW225858   3.447   0.438   0.501 -0.5409  0.1500 -1.0498
 6287SOL     OW25859   6.117   2.305   0.482  0.3203  0.1937 -0.3772
 6287SOL    HW125860   6.029   2.353   0.477 -0.0706 -0.5269 -0.4434
 6287SOL    HW225861   6.104   2.208   0.460  0.7888 -0.3436  1.5695
 6288SOL     OW25862   0.848   5.754   1.114 -0.3929 -0.3762 -0.0569
 6288SOL    HW125863   0.783   5.821   1.080 -1.5497 -1.4222  0.0490
 6288SOL    HW225864   0.935   5.799   1.134 -1.3402  1.2117  0.6137
 6289SOL     OW25865   4.004   2.503   5.117  0.4778  0.1040  0.0113
 6289SOL    HW125866   4.035   2.598   5.123 -0.0962  0.2860  0.1695
 6289SOL    HW225867   4.014   2.470   5.023 -0.8034  0.8424 -0.4019
 6290SOL     OW25868   6.011   2.319   1.289 -0.5024 -0.4848 -0.2776
 6290SOL    HW125869   6.004   2.407   1.241 -0.4434 -0.0696  0.4796
 6290SOL    HW225870   6.047   2.250   1.225 -0.7444 -0.0129 -0.9322
 6291SOL     OW25871   6.811   5.047   1.318  0.2442  0.1204  0.1928
 6291SOL    HW125872   6.856   4.959   1.304  1.3308  0.7119 -0.0862
 6291SOL    HW225873   6.877   5.112   1.355 -0.4099  0.9785 -0.1446
 6292SOL     OW25874   6.305   1.042   3.508  0.0765  0.4424 -0.0654
 6292SOL    HW125875   6.250   0.960   3.497 -1.1051  0.8990  2.1064
 6292SOL    HW225876   6.357   1.059   3.424 -0.0805 -2.1774 -0.7373
 6293SOL     OW25877   2.705   4.664   6.981 -0.2156 -0.0849 -0.5915
 6293SOL    HW125878   2.683   4.649   6.885 -0.2761  0.0456 -0.5978
 6293SOL    HW225879   2.790   4.617   7.004  0.8577  1.5109 -1.2017
 6294SOL     OW25880   3.070   3.946   1.824  0.0152 -0.0486  0.0399
 6294SOL    HW125881   3.069   3.873   1.755  0.8314  0.5145 -0.5873
 6294SOL    HW225882   2.977   3.962   1.857 -0.0064 -2.2268  1.1089
 6295SOL     OW25883   5.202   4.340   0.623 -0.0896 -0.4785  0.2274
 6295SOL    HW125884   5.107   4.371   0.624  0.7031  2.0457  1.6307
 6295SOL    HW225885   5.209   4.250   0.666 -1.8025 -0.6172  0.2477
 6296SOL     OW25886   1.369   3.164   1.180 -0.0115 -0.8543  0.6457
 6296SOL    HW125887   1.364   3.255   1.139  0.0436 -0.8041  0.7489
 6296SOL    HW225888   1.445   3.113   1.138  0.3212 -0.6470  0.9928
 6297SOL     OW25889   3.954   7.137   6.170  0.7661  0.4174  0.1025
 6297SOL    HW125890   3.936   7.070   6.099  0.0683 -0.1109  0.7730
 6297SOL    HW225891   3.901   7.115   6.252  0.8847  1.5167  0.4910
 6298SOL     OW25892   7.103   5.380   7.248  0.4579  0.2152  0.4493
 6298SOL    HW125893   7.169   5.414   7.315  0.5102 -2.7301  1.9617
 6298SOL    HW225894   7.150   5.327   7.178 -0.2540 -1.9316  1.5563
 6299SOL     OW25895   2.091   7.298   7.159  0.1099  0.1997  0.0456
 6299SOL    HW125896   2.004   7.323   7.202  1.0770  1.0642  1.5335
 6299SOL    HW225897   2.143   7.381   7.138  0.0853 -0.2526 -1.9488
 6300SOL     OW25898   3.248   4.917   0.877  0.7694 -0.4830 -0.0367
 6300SOL    HW125899   3.345   4.932   0.859  0.7290  0.2479  0.3247
 6300SOL    HW225900   3.223   4.962   0.963  0.4635 -2.0194  0.6883
 6301SOL     OW25901   6.046   2.317   0.957  0.2890 -0.0736  0.2523
 6301SOL    HW125902   6.023   2.391   0.893 -0.5801 -0.0233  0.6101
 6301SOL    HW225903   5.962   2.272   0.987  0.8883 -1.9506 -0.8352
 6302SOL     OW25904   6.376   2.161   0.038  0.1213  0.2438 -0.0967
 6302SOL    HW125905   6.398   2.249  -0.003  1.4209 -0.5412 -1.1198
 6302SOL    HW225906   6.374   2.091  -0.033  0.4376 -0.7980  0.9094
 6303SOL     OW25907   1.925   1.988   1.057  0.4805 -0.8645 -0.0418
 6303SOL    HW125908   1.961   1.919   1.119  0.7439  0.7226  1.6256
 6303SOL    HW225909   1.996   2.056   1.039 -0.1782 -0.3202 -0.6025
 6304SOL     OW25910   5.757   4.089   0.916 -0.2488 -0.7476  0.3607
 6304SOL    HW125911   5.782   4.009   0.971 -0.0502 -1.1788 -0.3568
 6304SOL    HW225912   5.829   4.158   0.922  0.7107 -1.6169 -0.9759
 6305SOL     OW25913   6.712   4.276   0.313  0.0666 -0.3687 -0.7384
 6305SOL    HW125914   6.683   4.183   0.334  0.6936  0.1749  2.8360
 6305SOL    HW225915   6.633   4.338   0.320 -0.0940 -0.4474 -1.8407
 6306SOL     OW25916   2.690   0.885   2.054 -0.5693 -0.3890 -0.2858
 6306SOL    HW125917   2.643   0.798   2.038 -1.1141 -0.5828  2.1970
 6306SOL    HW225918   2.788   0.868   2.066 -0.7191 -0.7111  0.5158
 6307SOL     OW25919   3.001   0.350   0.282 -0.3596 -0.1282 -0.3065
 6307SOL    HW125920   3.049   0.293   0.216  0.3367 -0.7004  0.6810
 6307SOL    HW225921   3.060   0.366   0.361 -0.5938  1.8356 -0.4871
 6308SOL     OW25922   6.204   6.356   5.315 -0.0396  0.2578 -0.4153
 6308SOL    HW125923   6.107   6.379   5.320 -0.1791  0.0834 -2.0702
 6308SOL    HW225924   6.216   6.257   5.317  0.1292  0.2929  0.2499
 6309SOL     OW25925   0.357   5.461   6.397 -0.0830 -0.3423  0.4918
 6309SOL    HW125926   0.273   5.482   6.347  1.6139 -0.2470 -2.3885
 6309SOL    HW225927   0.352   5.369   6.434 -1.7361 -0.0662  0.9998
 6310SOL     OW25928   5.750   0.834   7.257  0.2760 -0.3906  0.4976
 6310SOL    HW125929   5.746   0.767   7.183  0.4992  0.4604 -0.2947
 6310SOL    HW225930   5.672   0.822   7.318 -0.2436 -0.6839 -0.2306
 6311SOL     OW25931   1.260   3.930   6.920  0.3853  0.0146 -0.4799
 6311SOL    HW125932   1.335   3.985   6.957  0.2742  0.4833 -0.9480
 6311SOL    HW225933   1.225   3.870   6.991  2.3295 -1.4425 -0.7081
 6312SOL     OW25934   1.672   1.167   1.141 -0.3962  1.2364 -0.0791
 6312SOL    HW125935   1.619   1.229   1.199 -0.4190  2.2120 -1.1224
 6312SOL    HW225936   1.619   1.085   1.122 -0.4943  1.0347  1.0529
 6313SOL     OW25937   0.348   6.506   1.717 -0.7046  0.3053 -0.8022
 6313SOL    HW125938   0.275   6.559   1.760 -1.7304 -0.4744 -1.5272
 6313SOL    HW225939   0.375   6.431   1.778 -1.7669 -0.4650 -1.2540
 6314SOL     OW25940   5.203   1.000   3.236  0.3271  0.6836 -0.0851
 6314SOL    HW125941   5.259   0.938   3.293  0.0930  0.1264 -0.4551
 6314SOL    HW225942   5.140   1.051   3.294  0.0111  0.0323  0.1470
 6315SOL     OW25943   0.638   2.506   6.454 -0.7041  0.1781  0.2791
 6315SOL    HW125944   0.641   2.414   6.491 -1.5030  0.3417  0.7614
 6315SOL    HW225945   0.707   2.516   6.382 -0.5935 -0.7765  0.2525
 6316SOL     OW25946   1.474   4.278   3.295  0.1003 -0.0432  0.2538
 6316SOL    HW125947   1.520   4.189   3.295 -3.4384 -1.9532  1.4704
 6316SOL    HW225948   1.508   4.333   3.370 -0.7437 -2.0805  2.1816
 6317SOL     OW25949   0.544   3.865   1.792 -0.3778 -0.2923  0.2555
 6317SOL    HW125950   0.561   3.904   1.701 -1.1904  0.8999  0.6025
 6317SOL    HW225951   0.446   3.858   1.808 -0.2396 -0.9825  0.8466
 6318SOL     OW25952   1.698   2.229   1.745  0.3542  0.0932  0.2015
 6318SOL    HW125953   1.690   2.313   1.798 -1.6836 -1.4173  2.3583
 6318SOL    HW225954   1.777   2.177   1.776  0.6486  0.4186 -0.0007
 6319SOL     OW25955   3.713   5.568   3.964  0.0900  0.1220 -0.3099
 6319SOL    HW125956   3.774   5.522   3.899 -0.0604 -1.0926  0.3994
 6319SOL    HW225957   3.767   5.611   4.036  0.0639 -1.9240  0.9453
 6320SOL     OW25958   0.927   1.313   2.512  0.0939 -0.1914 -0.1054
 6320SOL    HW125959   1.007   1.263   2.544 -0.0240 -0.1927  0.1897
 6320SOL    HW225960   0.877   1.349   2.591  0.6243  1.0842 -0.3460
 6321SOL     OW25961   2.043   4.500   6.085  0.4694  0.0297 -0.0505
 6321SOL    HW125962   1.979   4.424   6.072 -2.4865  2.3435  0.3472
 6321SOL    HW225963   2.079   4.497   6.178 -2.3967  1.0572  1.1595
 6322SOL     OW25964   6.863   1.827   0.942  0.2979 -0.3366  0.4017
 6322SOL    HW125965   6.828   1.865   1.028 -0.2745 -0.5605  0.2691
 6322SOL    HW225966   6.904   1.900   0.888 -1.2348  0.1963 -0.0694
 6323SOL     OW25967   3.979   1.549   2.867  0.4415  0.3010 -0.2594
 6323SOL    HW125968   4.011   1.494   2.790 -0.7282  1.1206 -1.3488
 6323SOL    HW225969   3.997   1.500   2.953 -2.1796 -2.5915 -1.2852
 6324SOL     OW25970   3.179   2.785   2.506  0.4585  0.5649 -0.2623
 6324SOL    HW125971   3.186   2.747   2.414 -0.9800  2.4170 -1.1804
 6324SOL    HW225972   3.147   2.714   2.569  0.8842 -0.5602 -1.2889
 6325SOL     OW25973   6.589   3.129   5.328 -0.0434  0.6015  0.3756
 6325SOL    HW125974   6.500   3.175   5.334 -0.2993  0.1133  0.4025
 6325SOL    HW225975   6.588   3.048   5.386 -0.4476 -0.8037 -1.5434
 6326SOL     OW25976   2.794   2.411   0.936  0.2732 -0.5851  0.5115
 6326SOL    HW125977   2.776   2.441   0.842  0.0770 -0.3119  0.6329
 6326SOL    HW225978   2.728   2.455   0.998  1.4481  0.5525  0.9844
 6327SOL     OW25979   0.692   5.544   5.208  0.9204 -0.4526  0.1330
 6327SOL    HW125980   0.653   5.565   5.118  0.1304 -1.1222  0.3102
 6327SOL    HW225981   0.791   5.560   5.207  1.1883 -2.0280 -1.3544
 6328SOL     OW25982   1.261   7.096   3.453  0.0229 -0.5234 -0.5077
 6328SOL    HW125983   1.344   7.152   3.442 -1.7353  2.0013 -1.2892
 6328SOL    HW225984   1.264   7.050   3.541  1.9629  0.0487 -0.2449
 6329SOL     OW25985   1.336   1.730   3.992  0.4134 -0.2424 -0.0542
 6329SOL    HW125986   1.340   1.829   4.007  0.8927 -0.5196  1.7638
 6329SOL    HW225987   1.327   1.683   4.080 -0.8371 -1.7785 -0.9801
 6330SOL     OW25988   1.201   5.436   1.600  0.5533  0.2165 -0.5808
 6330SOL    HW125989   1.225   5.373   1.674  3.0941  0.4322 -1.1674
 6330SOL    HW225990   1.148   5.387   1.531 -0.9123 -0.2505  0.8489
 6331SOL     OW25991   0.859   5.217   6.138  0.1709  0.1833  0.1698
 6331SOL    HW125992   0.869   5.222   6.238 -2.3297 -0.9139  0.5189
 6331SOL    HW225993   0.878   5.306   6.098 -1.5080  1.3691  1.9178
 6332SOL     OW25994   4.198   0.937   5.115 -0.5638  0.1573 -0.4215
 6332SOL    HW125995   4.190   1.016   5.176  0.7525 -0.3253  0.4231
 6332SOL    HW225996   4.131   0.867   5.142 -0.0175 -0.0363  0.4668
 6333SOL     OW25997   3.996   2.531   3.866 -0.2888  0.0960 -0.0600
 6333SOL    HW125998   3.988   2.498   3.772 -0.8448  1.2789 -0.4327
 6333SOL    HW225999   4.065   2.477   3.915  0.2852 -0.2558 -1.2570
 6334SOL     OW26000   3.618   5.247   2.758  0.3360  0.5212  0.4269
 6334SOL    HW126001   3.610   5.232   2.857  1.2460  0.5101  0.5108
 6334SOL    HW226002   3.565   5.328   2.732  1.5890  1.6364  1.2499
 6335SOL     OW26003   5.641   4.392   0.913 -0.4878 -0.0181  0.8591
 6335SOL    HW126004   5.551   4.396   0.868 -0.3631 -0.4716  0.5669
 6335SOL    HW226005   5.711   4.370   0.846 -0.2345 -0.2429  1.1950
 6336SOL     OW26006   5.479   6.160   3.747 -0.5266  0.5246  0.0130
 6336SOL    HW126007   5.528   6.234   3.793 -0.6898  0.3023  0.5424
 6336SOL    HW226008   5.503   6.160   3.650  0.2906  0.6050  0.2125
 6337SOL     OW26009   3.581   1.712   5.264  0.3822 -0.1018  0.0461
 6337SOL    HW126010   3.574   1.673   5.356  3.3610  0.8513  0.7328
 6337SOL    HW226011   3.582   1.638   5.196  0.2707 -0.9099  0.9265
 6338SOL     OW26012   5.740   2.248   5.205  0.3521 -0.3412  0.3497
 6338SOL    HW126013   5.739   2.243   5.305 -0.2150  1.5421  0.4475
 6338SOL    HW226014   5.661   2.200   5.168  0.1251 -0.3445  0.8418
 6339SOL     OW26015   0.063   7.094   6.308 -0.5977 -0.0474  0.0240
 6339SOL    HW126016   0.006   7.016   6.335 -1.3557  0.1646 -0.9387
 6339SOL    HW226017   0.015   7.179   6.330  0.3303  0.1622  1.2927
 6340SOL     OW26018   6.116   0.039   3.920 -0.5178  0.2729 -0.1954
 6340SOL    HW126019   6.103  -0.057   3.942  0.6500  0.1379 -0.0805
 6340SOL    HW226020   6.175   0.082   3.988  0.6127  0.5871 -1.3478
 6341SOL     OW26021   5.220   4.483   6.580 -0.3602 -0.5086  0.7551
 6341SOL    HW126022   5.129   4.520   6.599  0.3074  1.0026  1.0630
 6341SOL    HW226023   5.233   4.476   6.481  0.8835  3.7791  0.4846
 6342SOL     OW26024   0.153   1.533   2.673 -0.2577  0.3390 -0.1329
 6342SOL    HW126025   0.057   1.507   2.660 -0.1782 -0.4167  0.7673
 6342SOL    HW226026   0.175   1.608   2.611 -1.4401  0.5350 -0.3376
 6343SOL     OW26027   0.882   2.656   4.958  0.2193  0.0225  0.0360
 6343SOL    HW126028   0.975   2.620   4.960  0.7813  1.2602 -2.0686
 6343SOL    HW226029   0.860   2.688   4.866 -1.3760  2.0782  1.0671
 6344SOL     OW26030   2.043   5.214   0.596 -0.0938  0.0234  0.3591
 6344SOL    HW126031   2.025   5.311   0.584  0.2005  0.1265  0.7053
 6344SOL    HW226032   2.003   5.162   0.521  0.9471  0.5422 -0.5688
 6345SOL     OW26033   4.101   4.129   0.902 -0.3879  0.0818  0.5823
 6345SOL    HW126034   4.169   4.084   0.844 -0.0492 -0.7959  1.6597
 6345SOL    HW226035   4.046   4.061   0.949 -0.4935  0.7948  1.5047
 6346SOL     OW26036   4.999   5.589   1.887  0.1347 -0.3785  0.4372
 6346SOL    HW126037   4.975   5.505   1.935 -1.4139  0.2083  0.7098
 6346SOL    HW226038   4.930   5.609   1.818 -1.0190  2.1104  2.2345
 6347SOL     OW26039   4.654   4.562   3.197 -0.0662  0.0591 -0.6638
 6347SOL    HW126040   4.632   4.487   3.135 -0.2645  1.2940 -2.1427
 6347SOL    HW226041   4.733   4.538   3.253 -0.0672 -1.2103 -1.1985
 6348SOL     OW26042   4.193   7.008   1.278 -0.5680 -0.0572 -0.0692
 6348SOL    HW126043   4.183   6.999   1.179 -0.1373  0.9985 -0.2275
 6348SOL    HW226044   4.135   6.942   1.325 -2.5166  0.9371 -1.0015
 6349SOL     OW26045   3.772   5.814   3.757 -0.0767  0.0258 -0.2506
 6349SOL    HW126046   3.677   5.796   3.730  0.6558 -1.5332 -1.8570
 6349SOL    HW226047   3.806   5.737   3.811  0.9618 -0.3987 -1.5027
 6350SOL     OW26048   3.699   3.181   4.192  0.3908 -0.0833 -0.1423
 6350SOL    HW126049   3.618   3.140   4.149 -0.4941  0.6841  0.7543
 6350SOL    HW226050   3.673   3.268   4.234  1.9176  0.6510 -0.6988
 6351SOL     OW26051   0.575   5.310   1.460 -0.2808 -0.4202 -0.3039
 6351SOL    HW126052   0.637   5.389   1.457  0.2160 -0.7693  0.4509
 6351SOL    HW226053   0.488   5.334   1.417  0.1242  0.3057 -0.7381
 6352SOL     OW26054   6.676   0.825   3.049 -0.0020  0.6740  0.2286
 6352SOL    HW126055   6.749   0.763   3.076  0.3919  1.5318  1.1645
 6352SOL    HW226056   6.698   0.868   2.961 -0.1816 -0.3507 -0.3177
 6353SOL     OW26057   4.448   4.547   6.070  0.2327  0.2231 -0.5686
 6353SOL    HW126058   4.363   4.505   6.102 -0.6664  2.6061  0.2605
 6353SOL    HW226059   4.507   4.567   6.147  0.4591  0.8720 -0.9048
 6354SOL     OW26060   7.217   2.479   0.461  0.3543 -0.4552  0.0983
 6354SOL    HW126061   7.260   2.443   0.378 -0.4496 -0.0201 -0.5148
 6354SOL    HW226062   7.123   2.446   0.466 -0.5114  1.8515 -0.6534
 6355SOL     OW26063   1.241   2.265   1.914  0.2585  0.5780 -0.0026
 6355SOL    HW126064   1.255   2.350   1.965 -1.5283  1.2776 -0.6131
 6355SOL    HW226065   1.250   2.283   1.816  0.1642  0.0099 -0.1175
 6356SOL     OW26066   2.465   7.179   0.237 -0.0465 -0.4769  0.6821
 6356SOL    HW126067   2.495   7.247   0.171  1.6303 -0.5297  1.3606
 6356SOL    HW226068   2.367   7.162   0.226 -0.7055  2.7464  1.1634
 6357SOL     OW26069   4.172   5.347   3.933 -0.0522 -0.4543 -0.2034
 6357SOL    HW126070   4.118   5.273   3.974  0.0628  0.0212  0.8308
 6357SOL    HW226071   4.216   5.314   3.849 -0.5180 -1.3693 -0.0936
 6358SOL     OW26072   6.831   6.991   1.832 -0.7445  0.2422  0.2552
 6358SOL    HW126073   6.791   6.938   1.908  0.4937 -0.7083  0.2615
 6358SOL    HW226074   6.919   6.951   1.807  0.6393  2.8451  0.8319
 6359SOL     OW26075   0.347   4.123   4.674 -0.7357 -0.7796  0.2612
 6359SOL    HW126076   0.421   4.081   4.621 -0.9557  0.3570 -0.9832
 6359SOL    HW226077   0.262   4.072   4.657 -0.7377 -0.6168 -0.2350
 6360SOL     OW26078   3.864   7.194   4.324 -0.1107 -0.3063 -0.1593
 6360SOL    HW126079   3.789   7.259   4.316 -0.6087 -0.8344  0.2134
 6360SOL    HW226080   3.926   7.224   4.396  1.4766  1.5479 -2.2156
 6361SOL     OW26081   5.629   4.888   2.024  0.4301  0.3028  0.5808
 6361SOL    HW126082   5.693   4.932   2.087  1.7551  1.4278 -1.5099
 6361SOL    HW226083   5.552   4.949   2.007 -0.4211 -0.4005  1.8488
 6362SOL     OW26084   2.034   6.857   0.868 -0.3614 -0.7425  0.1985
 6362SOL    HW126085   2.003   6.909   0.948 -0.1316  0.6052 -0.5815
 6362SOL    HW226086   2.133   6.856   0.864 -0.3755 -0.5718 -0.2252
 6363SOL     OW26087   0.557   4.693   6.033  0.1262  0.2326 -0.2723
 6363SOL    HW126088   0.459   4.692   6.053  0.3378  2.4792  1.0019
 6363SOL    HW226089   0.570   4.688   5.934 -1.2103 -1.1740 -0.4129
 6364SOL     OW26090   4.757   4.650   6.855  0.4679 -0.5805  0.6215
 6364SOL    HW126091   4.754   4.579   6.784 -1.1249  0.2393 -0.1360
 6364SOL    HW226092   4.783   4.737   6.814 -0.2876 -0.1420  1.0790
 6365SOL     OW26093   1.310   2.015   4.221  0.2090 -0.1258  0.8245
 6365SOL    HW126094   1.302   2.015   4.321 -1.0355 -0.2556  0.7315
 6365SOL    HW226095   1.219   2.013   4.181  0.6997  0.7509 -0.3238
 6366SOL     OW26096   5.726   0.106   0.789  0.0629 -0.1338 -0.1210
 6366SOL    HW126097   5.813   0.083   0.833  0.3694  1.1768 -0.0035
 6366SOL    HW226098   5.726   0.071   0.696 -0.3684 -2.4521  0.7288
 6367SOL     OW26099   2.380   7.207   1.874  0.2403  0.4169 -0.5007
 6367SOL    HW126100   2.304   7.272   1.866 -0.5491 -0.5241 -0.7364
 6367SOL    HW226101   2.373   7.157   1.960  0.6720  0.4215 -0.4612
 6368SOL     OW26102   2.957   7.328   0.535  0.1913 -0.5776  0.5683
 6368SOL    HW126103   2.901   7.266   0.589 -0.1431 -1.1897 -0.4735
 6368SOL    HW226104   2.946   7.421   0.570 -1.0461 -0.7749  0.7351
 6369SOL     OW26105   5.006   6.389   6.601 -0.1096  0.4361  0.2688
 6369SOL    HW126106   5.029   6.410   6.696 -0.3270  0.8625  0.2295
 6369SOL    HW226107   4.907   6.397   6.588 -0.1702 -0.4075  0.1998
 6370SOL     OW26108   5.968   2.498   6.270  0.0413 -0.2053 -0.1050
 6370SOL    HW126109   6.049   2.452   6.307  0.3825 -0.5798 -1.3017
 6370SOL    HW226110   5.993   2.590   6.241  0.1582 -0.4839 -0.9100
 6371SOL     OW26111   3.024   0.048   1.464 -0.4532  0.0300 -0.3353
 6371SOL    HW126112   3.107   0.001   1.432 -0.6689 -0.4424 -0.1992
 6371SOL    HW226113   2.961  -0.018   1.503 -1.5209  0.2001 -1.7592
 6372SOL     OW26114   4.990   3.148   6.336 -0.3201  0.1716  0.5364
 6372SOL    HW126115   4.987   3.103   6.247  3.1007 -0.4243  0.6434
 6372SOL    HW226116   5.009   3.246   6.323  0.5615  0.0153  0.5935
 6373SOL     OW26117   6.604   1.686   7.290  0.0876  0.0745 -0.1549
 6373SOL    HW126118   6.678   1.620   7.275 -0.4767 -0.8332  0.9774
 6373SOL    HW226119   6.517   1.637   7.296 -0.4291  1.0009 -0.0713
 6374SOL     OW26120   4.143   7.052   6.693 -0.1959  0.3866  0.5877
 6374SOL    HW126121   4.122   7.105   6.610 -1.3729 -0.2429  0.4760
 6374SOL    HW226122   4.162   6.957   6.668 -0.4889  0.2091  1.0367
 6375SOL     OW26123   3.532   1.736   0.789 -0.5662  0.9178  0.4430
 6375SOL    HW126124   3.582   1.662   0.744 -1.5935  0.9551 -0.7838
 6375SOL    HW226125   3.587   1.772   0.864 -0.5363 -1.9036  1.8622
 6376SOL     OW26126   6.341   2.179   4.325  0.1037 -0.6078 -0.0343
 6376SOL    HW126127   6.317   2.204   4.419 -0.9437 -0.8289 -0.2334
 6376SOL    HW226128   6.295   2.093   4.301  0.5407 -0.6650 -0.6750
 6377SOL     OW26129   3.202   6.927   0.899  0.6074  0.1686  0.4498
 6377SOL    HW126130   3.134   6.860   0.930  0.7412  0.1576  0.7236
 6377SOL    HW226131   3.283   6.921   0.956  0.7614  0.3201  0.2488
 6378SOL     OW26132   5.294   1.776   3.813 -0.0722  0.0323  0.3136
 6378SOL    HW126133   5.267   1.800   3.719  1.5637 -1.5043 -0.5917
 6378SOL    HW226134   5.380   1.821   3.836  0.2770 -0.7176  0.5189
 6379SOL     OW26135   1.537   2.069   4.925 -0.0595 -0.1390 -0.3995
 6379SOL    HW126136   1.610   2.135   4.941 -0.5800  0.7556 -1.6556
 6379SOL    HW226137   1.477   2.102   4.852 -1.8693 -0.7396  0.7709
 6380SOL     OW26138   2.250   0.102   6.387 -0.4038  0.2960  0.6314
 6380SOL    HW126139   2.286   0.085   6.479 -1.0375  0.3707  0.8906
 6380SOL    HW226140   2.160   0.144   6.393 -0.4544  0.2888 -0.0273
 6381SOL     OW26141   3.685   7.220   1.786 -0.4689 -0.1685  0.1455
 6381SOL    HW126142   3.705   7.212   1.688 -1.1775 -0.5420  0.0287
 6381SOL    HW226143   3.603   7.167   1.808 -0.3240 -0.0690  0.9395
 6382SOL     OW26144   0.516   4.044   6.329  0.2032 -0.0113  0.3935
 6382SOL    HW126145   0.533   4.110   6.402  2.2765 -0.3634  0.2737
 6382SOL    HW226146   0.506   4.092   6.242  0.9899  0.2172  0.4204
 6383SOL     OW26147   2.180   1.042   0.730 -0.2658 -0.3002  0.1684
 6383SOL    HW126148   2.165   1.120   0.669 -0.8648 -0.9007 -0.4567
 6383SOL    HW226149   2.250   1.066   0.797 -0.8336  0.9775  0.3347
 6384SOL     OW26150   0.201   0.506   6.020 -0.7551 -0.1204  0.1918
 6384SOL    HW126151   0.150   0.428   6.057 -1.1394  0.6016  1.2058
 6384SOL    HW226152   0.184   0.514   5.922 -0.0354 -1.8296 -0.0991
 6385SOL     OW26153   0.837   4.907   1.360  0.6415  0.0291 -0.6863
 6385SOL    HW126154   0.767   4.964   1.317  0.2689 -0.9976 -1.4472
 6385SOL    HW226155   0.898   4.965   1.415 -1.4451  0.7919  0.8755
 6386SOL     OW26156   6.377   0.073   1.006 -0.0437 -0.1399 -0.0270
 6386SOL    HW126157   6.420  -0.016   1.010  2.6799  1.1770  1.1264
 6386SOL    HW226158   6.348   0.093   0.912  0.3970 -1.7148 -0.4991
 6387SOL     OW26159   5.489   6.829   2.644 -0.1478  0.4090 -0.3448
 6387SOL    HW126160   5.435   6.784   2.715 -0.7287 -0.4825 -1.3484
 6387SOL    HW226161   5.437   6.905   2.605 -0.6247 -0.3494 -1.1997
 6388SOL     OW26162   7.136   2.471   5.882 -0.2899  0.3810 -0.1950
 6388SOL    HW126163   7.185   2.390   5.849 -2.1689 -1.1510  0.6465
 6388SOL    HW226164   7.201   2.538   5.917  1.2094 -1.8031  1.3556
 6389SOL     OW26165   5.079   6.876   4.031 -0.0771 -0.4589  0.3292
 6389SOL    HW126166   5.028   6.879   3.945 -0.2885 -2.6066  0.3642
 6389SOL    HW226167   5.162   6.822   4.019  0.2439 -0.1869  1.2951
 6390SOL     OW26168   2.373   6.735   1.994 -0.3138 -0.2421  0.4184
 6390SOL    HW126169   2.440   6.807   2.011  0.5628 -0.4168 -1.9661
 6390SOL    HW226170   2.309   6.729   2.070 -1.3998  4.1586 -0.0400
 6391SOL     OW26171   7.212   3.741   2.755 -0.8059  0.2403 -0.1162
 6391SOL    HW126172   7.211   3.814   2.686 -0.4786  0.4784  0.1339
 6391SOL    HW226173   7.187   3.655   2.711 -2.4454  0.7181 -0.1739
 6392SOL     OW26174   3.941   5.925   6.987  0.6705  0.1811 -0.0841
 6392SOL    HW126175   4.004   5.861   6.942  0.6187 -1.2127  1.7745
 6392SOL    HW226176   3.986   5.965   7.067 -0.2787  0.3539  0.3689
 6393SOL     OW26177   4.871   2.952   3.420  0.0743  0.4031  0.3022
 6393SOL    HW126178   4.966   2.962   3.392  0.5023 -0.6316  1.3588
 6393SOL    HW226179   4.861   2.870   3.477 -1.2903  0.9943  0.9343
 6394SOL     OW26180   2.947   5.268   3.575  0.7169  0.0129  0.3300
 6394SOL    HW126181   2.884   5.191   3.564 -0.9302  1.2717  0.5554
 6394SOL    HW226182   3.035   5.246   3.534  0.2624 -1.9582  0.3561
 6395SOL     OW26183   2.942   1.750   1.595 -0.3429  0.2430 -0.2370
 6395SOL    HW126184   2.925   1.708   1.506  0.2579 -0.4782 -0.0112
 6395SOL    HW226185   2.961   1.679   1.662  1.0749  0.8876  0.0598
 6396SOL     OW26186   2.700   0.320   3.273 -0.4859  0.1885  0.2300
 6396SOL    HW126187   2.770   0.391   3.269 -0.9240  0.5136 -2.1069
 6396SOL    HW226188   2.639   0.337   3.350  1.1959  0.6553  1.4797
 6397SOL     OW26189   0.553   3.373   0.710 -0.5814 -0.7815 -0.0933
 6397SOL    HW126190   0.576   3.445   0.645  0.1051  0.6454  1.6902
 6397SOL    HW226191   0.476   3.402   0.766  2.3534  0.4706  3.5346
 6398SOL     OW26192   0.994   1.320   0.943  0.1277 -0.7216  0.5675
 6398SOL    HW126193   0.941   1.398   0.976  0.2527 -0.3055 -0.2107
 6398SOL    HW226194   0.957   1.235   0.981 -0.6356 -0.3668  0.6135
 6399SOL     OW26195   4.523   3.351   1.271 -0.2095 -0.2723  0.0462
 6399SOL    HW126196   4.477   3.394   1.349 -1.2944  0.5563 -1.0234
 6399SOL    HW226197   4.565   3.422   1.215  0.1837 -0.8228 -0.3533
 6400SOL     OW26198   4.201   7.214   4.249  0.2428 -0.2583 -0.4438
 6400SOL    HW126199   4.179   7.311   4.262  0.6094 -0.2151 -0.1239
 6400SOL    HW226200   4.163   7.182   4.162  2.1097  0.7694 -1.6539
 6401SOL     OW26201   7.014   3.487   3.636  0.6797 -0.1912 -0.4145
 6401SOL    HW126202   7.006   3.427   3.715  0.7118  1.0781  0.5593
 6401SOL    HW226203   7.016   3.431   3.552  0.6638 -1.5344  0.4624
 6402SOL     OW26204   4.728   2.671   6.694 -0.3197 -0.1032 -0.2675
 6402SOL    HW126205   4.796   2.678   6.766 -0.2733 -0.4038 -0.2822
 6402SOL    HW226206   4.751   2.595   6.633 -1.6805 -1.3665  0.7898
 6403SOL     OW26207   5.068   2.966   1.456 -0.3459 -0.1950  0.7926
 6403SOL    HW126208   5.167   2.977   1.444 -0.2122 -0.7310  1.3678
 6403SOL    HW226209   5.051   2.897   1.526 -1.1131  1.2364  2.0300
 6404SOL     OW26210   5.379   6.687   2.869 -0.4768 -0.4136  0.8732
 6404SOL    HW126211   5.284   6.666   2.893 -1.0945 -1.2871 -2.1777
 6404SOL    HW226212   5.436   6.608   2.889 -0.3992  0.0195  2.4673
 6405SOL     OW26213   4.930   6.237   2.045  0.8119 -0.0299 -0.1088
 6405SOL    HW126214   5.027   6.257   2.030  0.9022 -0.6257 -0.3461
 6405SOL    HW226215   4.875   6.282   1.975  0.9833 -0.2987 -0.4196
 6406SOL     OW26216   5.896   6.433   6.585 -0.0068 -0.1659 -0.2725
 6406SOL    HW126217   5.926   6.416   6.491  0.7607  0.7058 -0.1880
 6406SOL    HW226218   5.922   6.525   6.612 -0.8447 -0.1703  0.5641
 6407SOL     OW26219   2.627   1.902   0.378  0.1915 -0.5707  0.3839
 6407SOL    HW126220   2.712   1.890   0.429  0.3393  0.1431  0.3209
 6407SOL    HW226221   2.643   1.968   0.304 -0.2628 -0.8868  0.0023
 6408SOL     OW26222   7.263   4.596   1.861  0.2303 -0.7716 -0.2844
 6408SOL    HW126223   7.307   4.527   1.803 -0.6713  0.4259 -2.4481
 6408SOL    HW226224   7.323   4.617   1.938  1.8448 -1.7593 -1.2377
 6409SOL     OW26225   1.226   4.682   5.497  0.5159 -0.6782 -0.6838
 6409SOL    HW126226   1.241   4.780   5.510 -0.2450 -0.5032 -1.1298
 6409SOL    HW226227   1.305   4.632   5.533  0.4035  0.0243  0.5968
 6410SOL     OW26228   3.884   1.792   1.136 -0.0069  0.1799 -0.4378
 6410SOL    HW126229   3.882   1.841   1.224 -2.4383 -0.5085 -0.0718
 6410SOL    HW226230   3.971   1.744   1.127  0.9060  1.5218  0.8834
 6411SOL     OW26231   5.789   4.457   0.688 -0.3440  0.7966 -0.0747
 6411SOL    HW126232   5.823   4.549   0.670 -0.3632  0.5449 -1.4328
 6411SOL    HW226233   5.833   4.392   0.626  0.3138 -0.2483  1.4606
 6412SOL     OW26234   6.285   4.310   0.347 -0.6084 -0.2372  0.3305
 6412SOL    HW126235   6.298   4.304   0.446  0.3456  0.1204  0.2263
 6412SOL    HW226236   6.371   4.332   0.303 -0.9475 -0.7787 -0.6229
 6413SOL     OW26237   0.668   5.739   2.570 -0.6300 -0.0335 -0.0253
 6413SOL    HW126238   0.731   5.727   2.493  0.1793 -1.2384  0.8006
 6413SOL    HW226239   0.605   5.661   2.574 -1.0761  0.3325  0.1643
 6414SOL     OW26240   1.687   1.451   3.533  0.0580 -0.2479 -0.0649
 6414SOL    HW126241   1.677   1.352   3.522  0.3096 -0.1817 -0.8964
 6414SOL    HW226242   1.783   1.473   3.550 -0.1526 -0.2398  1.1891
 6415SOL     OW26243   3.854   4.980   3.025  0.5426  0.1849  0.1957
 6415SOL    HW126244   3.800   4.923   2.964  2.1741 -1.4892  0.2726
 6415SOL    HW226245   3.890   4.925   3.100  4.2502  0.6615 -1.0985
 6416SOL     OW26246   5.122   5.235   4.784 -0.5262 -0.7490 -0.1616
 6416SOL    HW126247   5.092   5.283   4.702 -0.8248 -0.3216  0.1925
 6416SOL    HW226248   5.215   5.201   4.770 -0.8297 -1.2646 -0.9154
 6417SOL     OW26249   2.436   5.833   4.009  0.3237 -0.0628  0.2550
 6417SOL    HW126250   2.428   5.928   3.979  0.7317  0.3969  1.5988
 6417SOL    HW226251   2.533   5.810   4.023  0.1534 -0.3316  1.0192
 6418SOL     OW26252   5.288   7.168   0.758 -0.5035 -1.1539  0.0081
 6418SOL    HW126253   5.303   7.191   0.662  1.0652  0.8463  0.7130
 6418SOL    HW226254   5.376   7.150   0.802 -1.3654 -4.4805  0.5233
 6419SOL     OW26255   3.893   7.093   5.596 -0.2769  0.0097 -0.6935
 6419SOL    HW126256   3.966   7.101   5.528  0.0490 -0.7059 -0.4375
 6419SOL    HW226257   3.919   7.144   5.678  1.0501 -2.2306  0.3185
 6420SOL     OW26258   3.223   0.451   1.734  0.4782 -0.4088 -0.1683
 6420SOL    HW126259   3.149   0.400   1.690  0.0652  0.9948 -1.1225
 6420SOL    HW226260   3.305   0.449   1.677  0.0075  1.2288 -0.9277
 6421SOL     OW26261   3.013   0.672   1.080 -0.2439 -0.1387  0.3886
 6421SOL    HW126262   2.997   0.588   1.133 -0.0114 -1.3907 -1.4785
 6421SOL    HW226263   3.108   0.672   1.046 -0.9468 -0.3180 -1.6418
 6422SOL     OW26264   5.561   1.503   0.535 -0.1362  0.9690  0.1259
 6422SOL    HW126265   5.641   1.477   0.588 -0.4261  1.6247  0.8984
 6422SOL    HW226266   5.576   1.595   0.496 -0.2051  0.7796 -0.3510
 6423SOL     OW26267   7.142   1.208   3.328  0.9803  1.0296 -0.2273
 6423SOL    HW126268   7.152   1.211   3.229 -1.1333  0.1561 -0.4952
 6423SOL    HW226269   7.046   1.218   3.352  1.0428 -2.1148  1.5746
 6424SOL     OW26270   4.092   0.771   0.034  0.0767 -0.3561  0.0653
 6424SOL    HW126271   4.036   0.769  -0.049 -1.3612  0.0799  1.0168
 6424SOL    HW226272   4.186   0.798   0.010 -0.1879 -0.7982 -1.4945
 6425SOL     OW26273   2.352   4.507   0.737 -0.0783 -0.6297 -0.2086
 6425SOL    HW126274   2.419   4.499   0.663 -0.1175  1.3618 -0.4849
 6425SOL    HW226275   2.260   4.490   0.701 -0.0271 -0.3225 -0.4914
 6426SOL     OW26276   6.353   6.360   1.933 -0.1089 -0.5268  0.6185
 6426SOL    HW126277   6.352   6.326   1.839 -0.1909 -1.6647  1.0198
 6426SOL    HW226278   6.310   6.450   1.936  3.3876  1.3071 -1.0658
 6427SOL     OW26279   6.498   2.402   4.193 -0.2422 -0.3725  0.2627
 6427SOL    HW126280   6.415   2.447   4.160 -1.0307  0.0254  2.7381
 6427SOL    HW226281   6.475   2.309   4.224  0.4663 -0.6752 -0.0939
 6428SOL     OW26282   5.335   5.785   3.168  0.2312 -0.5005  0.7931
 6428SOL    HW126283   5.267   5.798   3.096 -0.1210  0.1402  1.2365
 6428SOL    HW226284   5.293   5.735   3.244  0.6097 -1.2028  0.5431
 6429SOL     OW26285   5.858   6.203   1.503  0.0714 -0.5597 -0.8548
 6429SOL    HW126286   5.816   6.116   1.527  0.2253 -0.1403  1.0275
 6429SOL    HW226287   5.786   6.269   1.480 -0.2818 -0.1907  1.1890
 6430SOL     OW26288   3.985   6.505   7.021  0.1524 -0.4787  0.2607
 6430SOL    HW126289   3.940   6.496   6.933  1.3500 -0.9158 -0.3183
 6430SOL    HW226290   3.937   6.450   7.089  0.5075 -1.9075 -0.6258
 6431SOL     OW26291   1.989   3.932   2.293 -0.0230  0.2921  0.1713
 6431SOL    HW126292   1.943   3.884   2.368  0.0958  0.4909  0.3718
 6431SOL    HW226293   2.009   4.026   2.322  0.0311  0.3641 -0.1068
 6432SOL     OW26294   4.579   5.940   6.211  0.2280  0.2642 -0.1075
 6432SOL    HW126295   4.543   5.847   6.203  1.3165 -0.2631  1.0612
 6432SOL    HW226296   4.638   5.960   6.133  1.0981 -0.5259  0.3404
 6433SOL     OW26297   5.254   3.957   2.619 -0.0430  0.3215 -0.1825
 6433SOL    HW126298   5.297   3.953   2.709 -1.2363  4.5979  0.7101
 6433SOL    HW226299   5.174   4.017   2.623 -0.8073 -0.3247 -3.8450
 6434SOL     OW26300   4.862   2.347   3.568  0.6524 -0.2976 -0.6645
 6434SOL    HW126301   4.920   2.396   3.633  1.1148 -0.7692 -0.7248
 6434SOL    HW226302   4.803   2.413   3.521 -1.9816 -0.2449  2.5079
 6435SOL     OW26303   7.235   2.951   3.143  0.1748 -0.3839  0.0629
 6435SOL    HW126304   7.166   2.880   3.129  0.5432 -0.7489  0.0766
 6435SOL    HW226305   7.322   2.908   3.166  0.8549 -0.0075 -1.7053
 6436SOL     OW26306   2.223   2.622   1.363  0.3007  0.1083 -0.1780
 6436SOL    HW126307   2.269   2.536   1.383 -0.1536 -0.4341 -1.3741
 6436SOL    HW226308   2.153   2.607   1.293  0.0749  1.4099 -0.2544
 6437SOL     OW26309   2.690   3.043   1.229 -0.7058  0.4463  0.4110
 6437SOL    HW126310   2.750   2.984   1.283 -0.1023  0.3125 -0.3947
 6437SOL    HW226311   2.708   3.139   1.252  0.1635  0.4336 -0.1562
 6438SOL     OW26312   1.329   1.286   3.636 -0.5129 -0.0473  0.5256
 6438SOL    HW126313   1.350   1.335   3.721  0.0622 -0.1961  0.4742
 6438SOL    HW226314   1.234   1.304   3.610 -1.4359 -1.9244  2.4740
 6439SOL     OW26315   0.568   3.410   1.254 -0.0864 -0.2749  0.1878
 6439SOL    HW126316   0.508   3.382   1.178 -1.0031  2.2511 -0.0468
 6439SOL    HW226317   0.659   3.429   1.218  0.1931 -1.6009  0.1493
 6440SOL     OW26318   6.863   6.264   6.793  0.0643  0.3419  0.0353
 6440SOL    HW126319   6.953   6.247   6.754  0.2453  2.4618 -0.5518
 6440SOL    HW226320   6.801   6.299   6.722 -0.4477  1.4145  0.9720
 6441SOL     OW26321   4.411   6.616   2.641 -0.3437  0.2882  0.1994
 6441SOL    HW126322   4.439   6.552   2.569 -0.4249 -2.3139  2.4150
 6441SOL    HW226323   4.433   6.709   2.612  1.5045 -0.8528 -2.3107
 6442SOL     OW26324   1.814   5.669   3.265 -0.4063 -0.0966 -0.3984
 6442SOL    HW126325   1.900   5.681   3.215  0.9175 -2.4968  1.1574
 6442SOL    HW226326   1.805   5.742   3.333 -0.8950  1.6410 -2.2973
 6443SOL     OW26327   3.987   4.721   3.151 -0.3991  0.2199  0.1312
 6443SOL    HW126328   3.986   4.758   3.244  0.3073  0.5684  0.0057
 6443SOL    HW226329   4.076   4.680   3.133 -0.1816  1.0575 -0.7431
 6444SOL     OW26330   1.188   3.298   4.991  0.3192  0.3385  0.0360
 6444SOL    HW126331   1.263   3.342   5.041 -0.4436  1.8406 -0.0998
 6444SOL    HW226332   1.220   3.273   4.900  0.9998 -0.1524  0.3986
 6445SOL     OW26333   3.158   6.342   1.188  0.5926  0.6235 -0.4920
 6445SOL    HW126334   3.229   6.286   1.232  0.6166  0.6187 -0.5374
 6445SOL    HW226335   3.108   6.392   1.258  1.6819  1.8518 -0.5701
 6446SOL     OW26336   5.886   6.520   4.305  0.0996  0.3158 -0.9370
 6446SOL    HW126337   5.876   6.469   4.220 -1.4673  0.7536 -1.0370
 6446SOL    HW226338   5.982   6.543   4.320  0.5059 -0.6222 -2.0748
 6447SOL     OW26339   6.199   3.642   2.298 -0.2763  0.1767 -0.3424
 6447SOL    HW126340   6.101   3.659   2.309 -0.5984 -1.1402 -1.1054
 6447SOL    HW226341   6.216   3.602   2.207  0.7467 -1.2016  0.4351
 6448SOL     OW26342   5.031   0.390   0.276 -0.3038  0.1072 -0.0165
 6448SOL    HW126343   5.116   0.437   0.253  1.4919 -1.2905  3.3924
 6448SOL    HW226344   4.984   0.440   0.349 -0.0861 -1.5261  1.2681
 6449SOL     OW26345   2.538   6.914   0.137 -0.3418  0.1712 -0.8348
 6449SOL    HW126346   2.543   6.928   0.038 -1.0975 -0.7290 -1.0085
 6449SOL    HW226347   2.498   6.995   0.181 -3.1791 -0.7464 -1.6356
 6450SOL     OW26348   7.148   1.147   1.878 -0.2971 -0.0858  0.0193
 6450SOL    HW126349   7.060   1.136   1.832 -0.4092 -0.5883  0.3415
 6450SOL    HW226350   7.132   1.185   1.970 -0.0118  1.6634 -0.6345
 6451SOL     OW26351   3.733   1.257   6.754  0.0322  0.2865 -0.3052
 6451SOL    HW126352   3.646   1.278   6.710  0.0082  0.3537 -0.2241
 6451SOL    HW226353   3.741   1.158   6.765 -0.9746  0.3991  1.6193
 6452SOL     OW26354   2.894   1.604   2.454 -0.4116  0.0865  0.2752
 6452SOL    HW126355   2.859   1.552   2.375 -3.0091  0.7319  0.9761
 6452SOL    HW226356   2.894   1.545   2.535 -1.0951  0.4532  0.5477
 6453SOL     OW26357   3.618   2.698   6.328 -0.0364 -0.7710  0.2564
 6453SOL    HW126358   3.564   2.721   6.247 -1.7922  0.5470  1.7499
 6453SOL    HW226359   3.693   2.764   6.338  0.0789 -0.8328 -0.1805
 6454SOL     OW26360   7.267   2.707   1.276 -0.1143 -0.0331 -0.5418
 6454SOL    HW126361   7.340   2.763   1.316 -0.3295  0.7918 -1.2864
 6454SOL    HW226362   7.306   2.645   1.208  0.1847 -1.1068  0.5910
 6455SOL     OW26363   7.270   6.180   2.273 -0.1113 -0.8816  0.0885
 6455SOL    HW126364   7.345   6.218   2.219 -0.4207  0.0114  0.2753
 6455SOL    HW226365   7.225   6.253   2.324 -0.3511 -1.5931  0.9168
 6456SOL     OW26366   4.430   6.177   4.211 -0.2396 -0.0500 -0.0495
 6456SOL    HW126367   4.476   6.208   4.128 -0.9144  0.3351 -0.2819
 6456SOL    HW226368   4.349   6.233   4.228  0.4610  0.5202  1.4378
 6457SOL     OW26369   5.848   4.270   4.537  0.0661  0.0433 -0.2389
 6457SOL    HW126370   5.861   4.178   4.501 -2.3347  0.2995 -1.8578
 6457SOL    HW226371   5.761   4.275   4.586  0.0599  1.5417 -0.3852
 6458SOL     OW26372   7.292   3.008   0.344  0.4388  0.0332 -0.3628
 6458SOL    HW126373   7.252   3.010   0.252 -0.2801 -0.0648 -0.0596
 6458SOL    HW226374   7.353   3.086   0.356 -0.0660  0.4767 -0.6604
 6459SOL     OW26375   3.687   6.949   0.129  0.0028 -0.3665 -1.0274
 6459SOL    HW126376   3.668   6.855   0.102 -0.8029 -0.5267  0.0519
 6459SOL    HW226377   3.696   7.006   0.048  2.1046 -1.6650 -1.7367
 6460SOL     OW26378   7.351   0.168   5.453 -0.0693  0.0697 -0.3999
 6460SOL    HW126379   7.335   0.260   5.417  0.0589 -0.0898 -0.8660
 6460SOL    HW226380   7.264   0.125   5.476 -0.2157 -0.2135 -1.4772
 6461SOL     OW26381   4.909   4.017   4.947  0.1014  0.7371 -0.0704
 6461SOL    HW126382   4.811   4.006   4.930  0.5559  1.8314 -3.6644
 6461SOL    HW226383   4.923   4.047   5.042 -2.9255 -0.4845  0.8136
 6462SOL     OW26384   4.143   2.098   2.246 -0.9307  0.3560  0.9555
 6462SOL    HW126385   4.164   2.001   2.231 -1.6999  0.1902  0.9017
 6462SOL    HW226386   4.161   2.149   2.161  0.7463  0.4951  1.3809
 6463SOL     OW26387   5.021   2.998   6.065 -0.6263  0.3915  0.5473
 6463SOL    HW126388   5.095   2.931   6.061 -1.7605 -0.7932 -3.1419
 6463SOL    HW226389   4.940   2.956   6.106 -0.3953  0.5071  1.1251
 6464SOL     OW26390   0.408   7.179   1.118 -0.0284  0.2336  0.1833
 6464SOL    HW126391   0.332   7.154   1.178  0.0689  0.0076  0.2131
 6464SOL    HW226392   0.372   7.214   1.031 -0.1670  0.2069  0.2307
 6465SOL     OW26393   4.105   0.998   2.686 -0.3624  0.2844 -0.7032
 6465SOL    HW126394   4.008   0.975   2.698  0.0219 -1.0275 -0.1199
 6465SOL    HW226395   4.151   0.997   2.774  0.1579  1.0650 -0.9590
 6466SOL     OW26396   0.590   6.546   5.878  0.1638 -0.6012 -0.3886
 6466SOL    HW126397   0.591   6.475   5.947 -1.9360 -0.0809  0.2226
 6466SOL    HW226398   0.680   6.554   5.836  1.4554 -0.9643  2.2300
 6467SOL     OW26399   5.887   2.043   0.157  0.8000 -0.8123 -0.1744
 6467SOL    HW126400   5.872   1.990   0.073 -0.7637 -2.3932  1.0590
 6467SOL    HW226401   5.972   2.094   0.149 -0.0980  0.3540 -3.3856
 6468SOL     OW26402   0.565   2.518   5.350  0.6802  0.4230  0.4614
 6468SOL    HW126403   0.653   2.489   5.388  1.5647  1.2364 -0.9226
 6468SOL    HW226404   0.535   2.602   5.395  0.4710 -0.0061  1.1259
 6469SOL     OW26405   0.765   4.875   4.730 -0.0598  0.3623 -0.3268
 6469SOL    HW126406   0.740   4.970   4.749 -0.8441 -0.2615  1.9929
 6469SOL    HW226407   0.844   4.850   4.786  0.0274 -0.3964 -0.7947
 6470SOL     OW26408   4.666   4.909   6.356 -0.0080 -0.0095 -0.7858
 6470SOL    HW126409   4.758   4.931   6.387 -0.8658  0.1506  1.7454
 6470SOL    HW226410   4.626   4.990   6.312  0.3608  0.4896 -0.2021
 6471SOL     OW26411   0.327   1.379   1.457  0.2753 -0.3980  0.2605
 6471SOL    HW126412   0.392   1.421   1.520 -0.5587  0.2488  0.6885
 6471SOL    HW226413   0.355   1.398   1.362  2.1881 -2.3623  0.3889
 6472SOL     OW26414   3.034   7.198   2.372  0.4053 -0.0560  0.0954
 6472SOL    HW126415   2.945   7.163   2.342  1.8447 -1.4412 -2.7759
 6472SOL    HW226416   3.089   7.122   2.407  1.5489  0.2543 -1.0148
 6473SOL     OW26417   5.445   1.552   4.015  0.4330 -0.0023 -0.1533
 6473SOL    HW126418   5.426   1.646   3.985  1.1686 -0.5575 -2.4942
 6473SOL    HW226419   5.529   1.520   3.972  1.0943 -1.1813  1.9563
 6474SOL     OW26420   4.502   2.689   0.972  0.2999  0.0171  0.2622
 6474SOL    HW126421   4.444   2.719   0.896  0.8846 -2.9102 -1.4187
 6474SOL    HW226422   4.594   2.727   0.961 -0.0241  0.8174  0.3269
 6475SOL     OW26423   6.211   1.352   2.763  0.4207 -0.0077  0.1470
 6475SOL    HW126424   6.224   1.414   2.686  0.7478 -0.3513 -0.0718
 6475SOL    HW226425   6.299   1.315   2.792  0.1561 -0.8702 -0.1340
 6476SOL     OW26426   4.283   6.726   7.148 -0.1737  0.2264  0.4357
 6476SOL    HW126427   4.206   6.693   7.092  1.7679 -0.2759 -2.0429
 6476SOL    HW226428   4.292   6.825   7.136  0.2571  0.1157 -0.2133
 6477SOL     OW26429   4.413   0.444   1.426  0.0724  0.3504  0.0748
 6477SOL    HW126430   4.433   0.471   1.520  1.5389  0.5612 -0.2984
 6477SOL    HW226431   4.482   0.482   1.364 -1.4058  1.0028 -1.2115
 6478SOL     OW26432   2.608   5.915   6.210 -0.1866  0.2496  0.2702
 6478SOL    HW126433   2.688   5.946   6.261 -0.3128  2.4177 -0.7868
 6478SOL    HW226434   2.618   5.817   6.188  1.7719  0.2969  0.8522
 6479SOL     OW26435   2.072   0.718   1.176  0.5263 -0.2525  0.8022
 6479SOL    HW126436   2.019   0.768   1.107  0.2954 -1.0332  0.4025
 6479SOL    HW226437   2.168   0.745   1.170  0.3898  0.2032  0.6461
 6480SOL     OW26438   5.501   0.570   3.133 -0.0324 -0.1856  0.4970
 6480SOL    HW126439   5.458   0.512   3.064  0.8553  0.1290 -0.3268
 6480SOL    HW226440   5.566   0.632   3.089 -0.3285  0.8292  1.4775
 6481SOL     OW26441   0.294   0.611   0.692 -0.4151  0.0320  0.4384
 6481SOL    HW126442   0.269   0.707   0.685 -1.4061 -0.1688  1.1028
 6481SOL    HW226443   0.214   0.557   0.717 -0.1743 -1.1577 -1.2701
 6482SOL     OW26444   4.809   1.332   2.637  0.1014  0.0076 -0.6565
 6482SOL    HW126445   4.834   1.415   2.687 -1.9785  1.2758 -1.6802
 6482SOL    HW226446   4.735   1.286   2.685  0.7840 -0.9080 -0.4683
 6483SOL     OW26447   1.248   0.068   1.619 -0.0460  0.1518  0.5642
 6483SOL    HW126448   1.196   0.090   1.537  0.8876 -1.6269 -0.5497
 6483SOL    HW226449   1.255   0.149   1.678 -2.0936  1.0050 -0.3375
 6484SOL     OW26450   0.662   1.715   1.661 -0.9509  0.3100  0.4220
 6484SOL    HW126451   0.677   1.809   1.630  0.0689  0.5548  1.5918
 6484SOL    HW226452   0.705   1.703   1.750 -0.6023 -1.4277  0.0350
 6485SOL     OW26453   2.334   3.321   3.956 -0.0666  0.2248  0.3023
 6485SOL    HW126454   2.307   3.323   4.052  0.0939  3.6455  0.3093
 6485SOL    HW226455   2.259   3.285   3.901 -0.5285 -0.7854  1.5752
 6486SOL     OW26456   5.156   2.359   3.748 -0.0607  0.4564  0.6257
 6486SOL    HW126457   5.101   2.316   3.820  0.4838  1.7916  1.8779
 6486SOL    HW226458   5.223   2.293   3.713 -1.5728 -0.7760  0.0038
 6487SOL     OW26459   1.919   1.759   6.677  0.6492  0.1210 -0.7430
 6487SOL    HW126460   2.015   1.774   6.702  0.7318  0.0852 -1.0448
 6487SOL    HW226461   1.903   1.662   6.660  0.7205  0.2193 -1.3750
 6488SOL     OW26462   0.994   7.123   3.499 -0.6400 -0.4617 -0.3121
 6488SOL    HW126463   1.092   7.120   3.477 -0.6097 -4.4018  0.0172
 6488SOL    HW226464   0.944   7.162   3.422  1.1427  1.2862 -0.6135
 6489SOL     OW26465   5.772   3.798   4.937  0.3981  0.2819 -0.2231
 6489SOL    HW126466   5.833   3.875   4.920 -1.2953  1.9109  0.9610
 6489SOL    HW226467   5.729   3.770   4.851  0.0088  1.5164 -0.4335
 6490SOL     OW26468   3.920   6.603   1.872 -0.4256  0.1073  0.9929
 6490SOL    HW126469   3.931   6.508   1.844 -2.8762 -0.5727  2.1728
 6490SOL    HW226470   3.877   6.655   1.797  2.1332  0.6429 -0.1583
 6491SOL     OW26471   3.992   3.672   4.577  0.3552 -0.2420  0.5110
 6491SOL    HW126472   3.929   3.604   4.540  0.9475 -0.9055  0.7082
 6491SOL    HW226473   4.055   3.628   4.641 -0.2857  0.7970  1.8647
 6492SOL     OW26474   5.889   1.527   2.915  0.3718  0.3698 -0.0250
 6492SOL    HW126475   5.837   1.513   2.831  0.4020 -1.2487  0.1994
 6492SOL    HW226476   5.825   1.532   2.993  0.5513 -2.2591  0.3270
 6493SOL     OW26477   3.175   5.027   1.120  0.5031 -0.2360 -0.2239
 6493SOL    HW126478   3.250   5.069   1.172  1.2915 -0.7838 -0.9192
 6493SOL    HW226479   3.119   5.099   1.080 -0.1873  0.2079  1.4675
 6494SOL     OW26480   1.367   0.886   6.035 -0.2621 -0.3633  0.0286
 6494SOL    HW126481   1.382   0.968   6.090  0.4942 -0.1027 -0.5615
 6494SOL    HW226482   1.409   0.897   5.946 -1.8415 -0.6328 -0.7659
 6495SOL     OW26483   2.386   2.483   3.932 -0.1126 -0.2599  0.0822
 6495SOL    HW126484   2.286   2.485   3.932 -0.1369 -1.2316  0.5143
 6495SOL    HW226485   2.418   2.402   3.882  0.4750  0.4244 -0.6743
 6496SOL     OW26486   5.376   7.030   2.460  0.6034  0.8594  0.1991
 6496SOL    HW126487   5.350   7.125   2.446 -1.0065  0.7456  2.1309
 6496SOL    HW226488   5.299   6.970   2.437  1.7670 -0.0231 -1.4811
 6497SOL     OW26489   1.970   3.803   6.629  0.8236 -0.1630  0.1928
 6497SOL    HW126490   1.911   3.868   6.678 -0.9520 -2.2526  0.9328
 6497SOL    HW226491   2.031   3.758   6.695  0.1400 -1.1938  0.1414
 6498SOL     OW26492   0.399   6.293   4.554  0.1978  0.4427 -0.4968
 6498SOL    HW126493   0.313   6.330   4.518 -0.5095  0.1732  0.8463
 6498SOL    HW226494   0.391   6.193   4.561  0.3368  0.4888  0.3353
 6499SOL     OW26495   2.462   6.725   1.311  0.1115 -0.0804 -0.0769
 6499SOL    HW126496   2.485   6.798   1.376  1.2459  0.4988 -1.0850
 6499SOL    HW226497   2.404   6.657   1.355 -1.1767  1.5625  0.8212
 6500SOL     OW26498   2.213   1.026   1.354 -0.6070 -0.0631 -0.4309
 6500SOL    HW126499   2.154   0.961   1.402  2.0581 -2.0514  0.2366
 6500SOL    HW226500   2.239   1.100   1.416  0.7507 -1.2660  0.4545
 6501SOL     OW26501   5.209   2.860   0.770 -0.4327 -0.3642  0.6439
 6501SOL    HW126502   5.189   2.821   0.680 -1.3282  2.9977 -0.7093
 6501SOL    HW226503   5.136   2.922   0.796  0.5272 -0.2085  3.0653
 6502SOL     OW26504   5.087   1.152   5.983  0.2535 -0.9121  0.6644
 6502SOL    HW126505   5.071   1.228   5.920  1.9962 -1.0851 -0.0174
 6502SOL    HW226506   5.185   1.146   6.004  0.4836 -4.2477 -0.9864
 6503SOL     OW26507   3.127   2.273   1.732 -0.3041  0.2884 -0.4835
 6503SOL    HW126508   3.133   2.342   1.804  1.5531 -1.4687  1.0817
 6503SOL    HW226509   3.042   2.222   1.742  0.0140 -0.0509  0.5857
 6504SOL     OW26510   0.491   3.329   5.614  0.7007  0.0113  0.0901
 6504SOL    HW126511   0.525   3.258   5.552  2.2555  0.8427 -0.0423
 6504SOL    HW226512   0.521   3.419   5.581 -0.2109  0.6266  0.9219
 6505SOL     OW26513   4.647   0.038   1.918  0.2148  0.2176  0.3025
 6505SOL    HW126514   4.550   0.017   1.914  0.6070 -1.5835 -0.2291
 6505SOL    HW226515   4.671   0.097   1.840 -0.4858  0.8388  0.5542
 6506SOL     OW26516   3.234   2.607   7.005  0.2767 -0.2824  0.2573
 6506SOL    HW126517   3.257   2.579   6.912  2.1540  1.1555  0.2549
 6506SOL    HW226518   3.287   2.554   7.070 -0.9160 -1.1744  0.5171
 6507SOL     OW26519   3.282   5.139   5.788 -0.4363  0.7110  0.1428
 6507SOL    HW126520   3.367   5.189   5.806  0.0093  0.1212 -0.2929
 6507SOL    HW226521   3.300   5.040   5.796 -1.1639  0.6013  0.4107
 6508SOL     OW26522   1.164   3.826   3.379 -0.0012  0.6732 -0.5031
 6508SOL    HW126523   1.249   3.867   3.346  1.0391 -0.7139  0.4141
 6508SOL    HW226524   1.129   3.761   3.312  0.6850 -0.1609 -0.0627
 6509SOL     OW26525   0.873   5.475   5.786 -0.0626 -0.5630 -0.3254
 6509SOL    HW126526   0.854   5.509   5.694 -0.3556  1.4888  0.4685
 6509SOL    HW226527   0.816   5.523   5.852  1.4548 -0.7121  1.1377
 6510SOL     OW26528   3.833   0.169   2.834 -0.3970  0.0495 -0.3849
 6510SOL    HW126529   3.771   0.113   2.889  0.8196  0.4665  1.4320
 6510SOL    HW226530   3.927   0.143   2.853  0.1897  2.6583  0.4479
 6511SOL     OW26531   4.257   1.625   7.029 -0.0072  0.3994 -0.4272
 6511SOL    HW126532   4.257   1.709   6.975  0.5181  1.5072  1.2460
 6511SOL    HW226533   4.166   1.613   7.070  0.1136  0.5250 -0.1201
 6512SOL     OW26534   6.596   0.302   0.296  0.2871  0.0340  0.4805
 6512SOL    HW126535   6.547   0.375   0.345 -0.0450  0.9334 -1.1665
 6512SOL    HW226536   6.694   0.323   0.295  0.4699 -0.6710  1.8981
 6513SOL     OW26537   6.008   2.058   3.434  0.2767 -0.1840 -0.7341
 6513SOL    HW126538   5.973   2.055   3.527 -1.0682  1.2039 -1.1694
 6513SOL    HW226539   6.081   2.127   3.428 -0.1658  0.2771 -0.8688
 6514SOL     OW26540   2.934   7.009   6.055  0.1162  0.6003  0.9392
 6514SOL    HW126541   2.834   7.021   6.055  0.0532  0.0759  1.0689
 6514SOL    HW226542   2.964   6.981   6.146  0.3859  0.7737  0.9027
 6515SOL     OW26543   3.871   1.075   3.908  0.2245  0.4808 -0.2566
 6515SOL    HW126544   3.895   0.980   3.925 -0.3367  0.4654  0.4762
 6515SOL    HW226545   3.830   1.084   3.818 -0.7192 -0.1510  0.1108
 6516SOL     OW26546   6.237   0.076   4.782 -0.0184  0.1028 -0.0084
 6516SOL    HW126547   6.238   0.175   4.795 -1.1727  0.5102 -2.6260
 6516SOL    HW226548   6.157   0.051   4.728  1.6030 -1.9433 -1.5203
 6517SOL     OW26549   6.753   4.055   6.725  0.1540 -0.1419  1.1989
 6517SOL    HW126550   6.798   4.143   6.704  0.1750 -0.1765  1.0999
 6517SOL    HW226551   6.823   3.985   6.739  0.1485 -0.0456  1.7049
 6518SOL     OW26552   4.991   1.052   7.262 -0.5100  0.1443 -0.0275
 6518SOL    HW126553   4.992   0.956   7.236 -1.1593  0.7010 -2.2332
 6518SOL    HW226554   5.061   1.069   7.332 -0.5079 -1.9369  0.4965
 6519SOL     OW26555   3.114   3.529   1.747 -0.1035 -0.9272  0.1277
 6519SOL    HW126556   3.092   3.456   1.812  1.4900 -0.6871  0.9470
 6519SOL    HW226557   3.036   3.591   1.741 -1.2648 -2.3698 -0.1619
 6520SOL     OW26558   1.188   5.160   6.954  0.0836 -0.2917  0.3793
 6520SOL    HW126559   1.119   5.089   6.942  0.5176 -0.6032 -0.2641
 6520SOL    HW226560   1.194   5.185   7.051 -0.6274 -0.5634  0.4929
 6521SOL     OW26561   5.094   0.565   6.345  0.3636 -0.3771  0.1667
 6521SOL    HW126562   5.167   0.550   6.279  1.8923 -2.0429  2.1813
 6521SOL    HW226563   5.133   0.587   6.435 -1.6809  2.7788  0.3550
 6522SOL     OW26564   3.100   6.238   1.992  0.2472  0.2461 -0.6827
 6522SOL    HW126565   3.185   6.290   1.990  2.4365 -3.2246 -0.9715
 6522SOL    HW226566   3.090   6.188   1.906 -0.5786 -1.6783  0.5055
 6523SOL     OW26567   4.646   5.713   4.271  0.2940  0.1897 -0.0554
 6523SOL    HW126568   4.695   5.779   4.214 -0.5471 -0.6846 -1.7977
 6523SOL    HW226569   4.676   5.724   4.366  1.6594  1.6946 -0.6289
 6524SOL     OW26570   0.006   3.247   1.394  0.3258 -0.0199 -0.2420
 6524SOL    HW126571   0.018   3.187   1.315  0.5998 -0.1630 -0.0915
 6524SOL    HW226572  -0.083   3.228   1.437  0.1445  0.1136 -0.5630
 6525SOL     OW26573   4.730   3.489   1.148 -0.1261 -0.3113  0.0368
 6525SOL    HW126574   4.799   3.517   1.081  1.5636 -2.3799  0.8275
 6525SOL    HW226575   4.680   3.569   1.180  2.3747  1.3599 -0.0861
 6526SOL     OW26576   2.520   4.453   0.980 -0.1433  0.6314 -0.4957
 6526SOL    HW126577   2.608   4.414   0.953 -0.8755 -0.9129 -0.6780
 6526SOL    HW226578   2.469   4.481   0.899 -0.5594 -0.1141 -0.4982
 6527SOL     OW26579   0.186   0.700   0.938  1.0019  0.0538 -0.0543
 6527SOL    HW126580   0.103   0.755   0.927  1.9618  2.0103  2.0425
 6527SOL    HW226581   0.181   0.649   1.023  2.3314  0.8927  0.5324
 6528SOL     OW26582   4.185   2.175   3.303 -0.5911  0.8629 -0.7978
 6528SOL    HW126583   4.152   2.086   3.335 -2.3444  1.9380  0.4221
 6528SOL    HW226584   4.109   2.227   3.266  0.5409  1.6434 -2.0693
 6529SOL     OW26585   5.565   2.535   1.797 -0.0864  0.5669 -0.8740
 6529SOL    HW126586   5.549   2.580   1.885  2.1755 -0.8457  0.3032
 6529SOL    HW226587   5.486   2.479   1.773 -0.0786 -0.3328  1.1005
 6530SOL     OW26588   6.707   0.635   0.070 -0.0776 -0.0425 -0.0950
 6530SOL    HW126589   6.779   0.683   0.020  0.2673  1.1665  1.5221
 6530SOL    HW226590   6.709   0.663   0.166 -2.2485 -0.5609  0.1188
 6531SOL     OW26591   3.535   0.778   3.046 -0.0469  0.5010  0.1373
 6531SOL    HW126592   3.501   0.868   3.020  1.7485  0.8679 -1.0524
 6531SOL    HW226593   3.539   0.719   2.964 -0.5529 -0.4376  0.7794
 6532SOL     OW26594   3.486   3.895   2.560  0.0067 -0.1124 -0.6145
 6532SOL    HW126595   3.447   3.930   2.475  0.7924  0.7553 -0.6313
 6532SOL    HW226596   3.505   3.797   2.551 -2.0135 -0.5183 -0.6517
 6533SOL     OW26597   0.980   3.779   3.856 -0.1998  0.0973  0.3377
 6533SOL    HW126598   1.041   3.858   3.850  0.5024 -0.4247  0.5990
 6533SOL    HW226599   0.896   3.806   3.903 -0.5623  1.0545 -0.8205
 6534SOL     OW26600   3.832   1.967   5.528  0.0245  0.3990  0.5946
 6534SOL    HW126601   3.809   1.904   5.602  0.2521 -0.8530 -0.3835
 6534SOL    HW226602   3.848   1.915   5.444 -0.1402  1.7929 -0.3139
 6535SOL     OW26603   0.825   6.014   6.910 -0.4250  0.4623 -0.4859
 6535SOL    HW126604   0.924   6.011   6.904 -0.2405 -1.9718  2.0977
 6535SOL    HW226605   0.796   6.095   6.961  0.4786 -0.3305  1.3417
 6536SOL     OW26606   2.000   6.131   3.217 -0.0972  0.0856 -0.2760
 6536SOL    HW126607   2.053   6.215   3.207 -0.4327  0.2350 -0.7753
 6536SOL    HW226608   1.908   6.145   3.182 -0.5103 -0.1368  0.7038
 6537SOL     OW26609   7.267   4.102   4.897 -0.1591  0.8958  0.5359
 6537SOL    HW126610   7.279   4.182   4.837 -1.4615  0.1025 -0.8106
 6537SOL    HW226611   7.172   4.073   4.895  0.5310 -1.4437  0.0348
 6538SOL     OW26612   5.355   0.713   0.497  0.4143  0.4897  0.8782
 6538SOL    HW126613   5.392   0.784   0.437  1.7752  0.9859  2.2660
 6538SOL    HW226614   5.420   0.637   0.503 -0.6940 -0.5476  0.0116
 6539SOL     OW26615   3.038   1.157   1.803  0.0538 -0.7898 -0.2440
 6539SOL    HW126616   3.070   1.125   1.714  0.5238  0.2853 -0.4691
 6539SOL    HW226617   3.081   1.104   1.876  3.1560  1.2880 -0.4943
 6540SOL     OW26618   5.530   3.845   3.231 -0.0903  0.0070  0.5316
 6540SOL    HW126619   5.432   3.850   3.210 -0.0309  1.1083  0.4713
 6540SOL    HW226620   5.547   3.770   3.294 -1.0943  0.3217  1.1910
 6541SOL     OW26621   3.609   2.584   5.604  0.0610 -0.7585  0.5075
 6541SOL    HW126622   3.573   2.676   5.591  0.5996 -0.6405 -0.1813
 6541SOL    HW226623   3.695   2.574   5.553 -0.5069 -1.9595 -0.2217
 6542SOL     OW26624   1.819   0.987   2.777  0.1350  0.2083 -0.8839
 6542SOL    HW126625   1.795   1.084   2.778 -0.6233  0.0222 -0.0977
 6542SOL    HW226626   1.748   0.935   2.728 -0.5206 -0.2060  0.4911
 6543SOL     OW26627   1.561   0.274   1.043  0.2869 -0.1493  0.2649
 6543SOL    HW126628   1.657   0.276   1.072  0.4958  0.4681 -0.4491
 6543SOL    HW226629   1.545   0.347   0.976 -0.2073 -1.4641 -1.0878
 6544SOL     OW26630   0.304   3.551   4.497  0.1069  0.1047 -0.1283
 6544SOL    HW126631   0.328   3.648   4.507  0.1847  0.1982 -1.2134
 6544SOL    HW226632   0.335   3.501   4.579  0.3257  0.9397  0.3054
 6545SOL     OW26633   5.912   5.257   0.955  0.2260 -0.0846 -0.3000
 6545SOL    HW126634   5.895   5.172   0.905 -0.9427  0.2482 -0.4815
 6545SOL    HW226635   6.004   5.290   0.934  0.4494 -0.9669 -0.7323
 6546SOL     OW26636   6.230   2.351   0.741 -0.0079 -0.2065  0.3875
 6546SOL    HW126637   6.180   2.296   0.809  0.6447 -0.4262  0.6917
 6546SOL    HW226638   6.189   2.337   0.651 -0.0710 -0.9271  0.5203
 6547SOL     OW26639   1.304   5.590   7.345  0.6137  0.1631 -0.1504
 6547SOL    HW126640   1.358   5.549   7.271 -1.1920 -0.1921 -1.3032
 6547SOL    HW226641   1.218   5.624   7.308 -0.0971  0.4445  1.7175
 6548SOL     OW26642   3.706   2.332   6.680 -0.5265 -0.4220 -0.0522
 6548SOL    HW126643   3.650   2.251   6.660  0.4623 -0.9265 -0.8684
 6548SOL    HW226644   3.698   2.397   6.605 -0.9148  0.0153  0.3664
 6549SOL     OW26645   4.676   3.750   2.377 -0.3412 -0.2211 -0.2515
 6549SOL    HW126646   4.715   3.772   2.287  0.0406 -0.0433 -0.0436
 6549SOL    HW226647   4.577   3.765   2.375 -0.0755  1.7523 -0.0489
 6550SOL     OW26648   4.918   1.481   1.411  0.0462  0.7848  0.5540
 6550SOL    HW126649   4.996   1.419   1.403 -0.8914 -0.4608  0.9377
 6550SOL    HW226650   4.880   1.499   1.320 -1.8875 -2.1003  0.7210
 6551SOL     OW26651   2.559   0.023   7.040  0.4309  0.1591  0.2131
 6551SOL    HW126652   2.619   0.084   6.989  1.0467  0.4376  1.2392
 6551SOL    HW226653   2.608  -0.063   7.059 -0.4123 -0.6390 -1.1806
 6552SOL     OW26654   7.278   3.286   5.726  0.9611 -0.4198 -0.0714
 6552SOL    HW126655   7.292   3.231   5.808 -2.1067  2.5646  2.6209
 6552SOL    HW226656   7.215   3.238   5.664 -0.0405 -0.8516  1.2674
 6553SOL     OW26657   2.691   5.283   4.829  0.3519  0.5980  0.4466
 6553SOL    HW126658   2.669   5.352   4.899  1.3888 -0.3910  1.7624
 6553SOL    HW226659   2.728   5.202   4.873 -2.0906 -1.3675 -0.9702
 6554SOL     OW26660   6.933   2.388   3.693 -0.1826  0.2939  0.4632
 6554SOL    HW126661   6.871   2.333   3.749 -0.8187  0.5881  0.0529
 6554SOL    HW226662   6.887   2.471   3.663 -0.0216 -0.0991 -0.9289
 6555SOL     OW26663   0.578   4.748   6.981  0.2588  0.2983 -0.7092
 6555SOL    HW126664   0.644   4.675   6.965  0.3067 -0.2556  1.9571
 6555SOL    HW226665   0.489   4.709   7.006 -0.2990  1.1213 -1.3568
 6556SOL     OW26666   0.235   1.748   2.572  0.0837 -0.0070 -0.2177
 6556SOL    HW126667   0.202   1.842   2.583 -1.8357 -0.6425 -0.3863
 6556SOL    HW226668   0.277   1.739   2.481  1.7824  1.1007  0.4283
 6557SOL     OW26669   7.115   6.513   1.112  0.2773 -0.3136  0.2257
 6557SOL    HW126670   7.114   6.513   1.212 -2.4856 -2.8428  0.2412
 6557SOL    HW226671   7.134   6.606   1.079  0.0824  0.7812  3.0797
 6558SOL     OW26672   2.757   6.162   5.869  0.3528  0.3056 -0.0861
 6558SOL    HW126673   2.827   6.212   5.819  1.0195 -0.2163  0.3134
 6558SOL    HW226674   2.756   6.193   5.965  1.2919 -0.9673  0.3491
 6559SOL     OW26675   5.072   4.269   4.914 -0.1938  0.2182 -0.2944
 6559SOL    HW126676   5.062   4.173   4.887  2.0754  0.1395 -0.9598
 6559SOL    HW226677   5.019   4.326   4.852 -0.5690 -0.5244 -0.6664
 6560SOL     OW26678   4.187   0.601   1.741  0.0799  0.0175  0.2910
 6560SOL    HW126679   4.213   0.697   1.755  0.4690 -0.2235  1.3181
 6560SOL    HW226680   4.269   0.545   1.733 -0.1441 -0.0698 -1.6035
 6561SOL     OW26681   2.515   7.220   5.723 -0.0315  0.5868 -0.3410
 6561SOL    HW126682   2.580   7.144   5.726  0.9421  1.3309 -2.1689
 6561SOL    HW226683   2.492   7.248   5.817 -0.0682 -1.6474  0.3502
 6562SOL     OW26684   4.604   0.489   0.997  0.6867  0.1832 -0.1083
 6562SOL    HW126685   4.571   0.404   0.957  1.3771 -0.2583  0.2381
 6562SOL    HW226686   4.667   0.533   0.933  1.1329 -0.0946  0.1354
 6563SOL     OW26687   3.505   3.115   0.369  0.0302  0.5394  0.3336
 6563SOL    HW126688   3.522   3.145   0.275 -0.9472  1.4504  0.4378
 6563SOL    HW226689   3.448   3.033   0.368  0.4383  0.2558  0.1239
 6564SOL     OW26690   0.017   0.562   1.782  0.1138 -0.0563  0.6146
 6564SOL    HW126691   0.038   0.466   1.799 -1.1093 -0.3306  0.6120
 6564SOL    HW226692  -0.024   0.602   1.864  1.8809  0.8373  1.0812
 6565SOL     OW26693   3.806   1.248   5.524 -0.2054  0.1509 -0.0657
 6565SOL    HW126694   3.746   1.185   5.475  1.3420  1.0137 -3.1556
 6565SOL    HW226695   3.863   1.196   5.588 -0.3139 -1.3654 -1.1674
 6566SOL     OW26696   2.687   4.178   3.500  0.2592  0.3506 -0.1823
 6566SOL    HW126697   2.706   4.245   3.428  0.6717  0.8179  0.3669
 6566SOL    HW226698   2.684   4.087   3.459 -0.6010  0.7245 -0.9837
 6567SOL     OW26699   1.775   4.898   2.525  0.1449  0.1155  0.2249
 6567SOL    HW126700   1.742   4.937   2.611 -0.5103 -0.0653  0.0623
 6567SOL    HW226701   1.807   4.971   2.465 -2.9981  0.6652 -0.9027
 6568SOL     OW26702   4.601   4.961   1.599  0.4034  0.2031 -0.3754
 6568SOL    HW126703   4.527   4.969   1.532  1.8172 -0.4313 -2.0595
 6568SOL    HW226704   4.615   5.050   1.643 -1.2139  0.3743 -0.1844
 6569SOL     OW26705   5.585   6.643   4.840 -0.1523  0.2301  0.5298
 6569SOL    HW126706   5.637   6.729   4.847 -1.3656  0.9263  1.0665
 6569SOL    HW226707   5.518   6.651   4.767 -0.8626  0.0541  1.1616
 6570SOL     OW26708   1.388   3.922   1.419  0.1644  0.0128  0.3094
 6570SOL    HW126709   1.325   3.934   1.342 -0.1576  0.3129  0.6198
 6570SOL    HW226710   1.341   3.943   1.505  0.9896  1.3728  0.4589
 6571SOL     OW26711   1.532   0.483   6.645 -0.2700  0.3567  0.2984
 6571SOL    HW126712   1.512   0.581   6.640 -1.0883  0.1499 -0.4162
 6571SOL    HW226713   1.560   0.460   6.738  0.7542  1.4271  0.2655
 6572SOL     OW26714   3.771   3.472   4.752  0.4519 -0.0563 -0.3759
 6572SOL    HW126715   3.858   3.460   4.801  0.5362  0.3827 -0.4140
 6572SOL    HW226716   3.725   3.384   4.744  0.0365  0.0024  1.2302
 6573SOL     OW26717   5.837   4.368   7.022 -0.1807  0.2813 -0.0884
 6573SOL    HW126718   5.787   4.378   7.108  0.0382 -2.1901  0.3488
 6573SOL    HW226719   5.931   4.399   7.034  0.6000 -2.5335  1.3434
 6574SOL     OW26720   4.394   3.729   2.354  0.1300  0.1104 -0.4831
 6574SOL    HW126721   4.321   3.737   2.286 -0.6523  0.1011  0.3510
 6574SOL    HW226722   4.407   3.632   2.377 -0.1771  0.1828 -0.0025
 6575SOL     OW26723   1.201   0.580   6.359 -0.2014 -0.2722 -0.4032
 6575SOL    HW126724   1.109   0.601   6.327  0.4666  1.5060 -1.2220
 6575SOL    HW226725   1.265   0.647   6.323  1.1582 -0.4520  1.5960
 6576SOL     OW26726   3.939   1.629   3.773 -0.0207  0.1631  0.2013
 6576SOL    HW126727   3.917   1.546   3.722  0.3858  1.4422 -2.1592
 6576SOL    HW226728   4.037   1.646   3.769 -0.0245  0.4614  1.1732
 6577SOL     OW26729   3.801   6.834   3.270 -0.0291 -0.3222 -0.3757
 6577SOL    HW126730   3.894   6.820   3.237 -0.5577 -0.8196 -1.6786
 6577SOL    HW226731   3.801   6.834   3.370  1.2228 -1.3458 -0.3586
 6578SOL     OW26732   1.726   1.688   0.974 -0.0181  0.2870  0.1750
 6578SOL    HW126733   1.705   1.765   0.914 -1.7722  0.4073  0.8870
 6578SOL    HW226734   1.727   1.603   0.921 -0.0758  0.5686 -0.2803
 6579SOL     OW26735   2.491   1.163   6.938  0.8260 -0.3806  0.7051
 6579SOL    HW126736   2.433   1.129   7.012  0.2758  1.0970  0.9736
 6579SOL    HW226737   2.499   1.092   6.867 -2.2696 -0.2600  0.1263
 6580SOL     OW26738   1.085   0.208   2.140  0.4874 -0.7157 -0.5451
 6580SOL    HW126739   0.986   0.220   2.149  0.6004  0.2783 -0.6199
 6580SOL    HW226740   1.116   0.141   2.208 -0.0603 -0.1849  0.2417
 6581SOL     OW26741   1.857   6.040   1.682  0.6474  0.0809  0.0262
 6581SOL    HW126742   1.902   5.994   1.759  1.9820 -0.3659 -0.9912
 6581SOL    HW226743   1.925   6.093   1.631 -0.1334 -0.0132 -1.1231
 6582SOL     OW26744   3.886   6.057   3.650  0.1224  0.3257 -0.1610
 6582SOL    HW126745   3.922   6.109   3.728 -1.3884 -0.6172  1.1867
 6582SOL    HW226746   3.850   5.970   3.683 -0.9063  0.1053 -1.8760
 6583SOL     OW26747   5.484   5.784   5.583 -0.1358 -0.0160 -0.3756
 6583SOL    HW126748   5.491   5.794   5.682  0.2874  0.8631 -0.4905
 6583SOL    HW226749   5.511   5.692   5.556  0.4475 -0.0248  0.2518
 6584SOL     OW26750   2.151   2.336   6.720 -0.7959  1.3427 -0.1059
 6584SOL    HW126751   2.103   2.388   6.650  2.1781  1.6114 -2.0250
 6584SOL    HW226752   2.165   2.242   6.688 -1.7959  0.7082  1.2764
 6585SOL     OW26753   7.300   3.497   6.273 -0.0860 -0.6557 -0.1084
 6585SOL    HW126754   7.397   3.474   6.279  0.5458  1.7879 -0.3104
 6585SOL    HW226755   7.288   3.574   6.211 -2.0073 -0.0620  0.9584
 6586SOL     OW26756   1.101   2.980   5.222 -0.5806  0.1052  0.1374
 6586SOL    HW126757   1.085   3.041   5.145 -0.8625  1.5025  1.2956
 6586SOL    HW226758   1.059   3.017   5.304  0.5204 -0.8901  1.1772
 6587SOL     OW26759   5.261   1.268   7.000  0.3767 -0.0631  0.3886
 6587SOL    HW126760   5.264   1.329   6.921 -1.2748 -1.7730 -1.0334
 6587SOL    HW226761   5.339   1.204   6.995  1.2538  0.9400  1.0809
 6588SOL     OW26762   0.669   0.259   2.006 -0.3385  0.4286  0.1962
 6588SOL    HW126763   0.581   0.228   1.969 -0.0360  0.3140 -0.4384
 6588SOL    HW226764   0.703   0.336   1.952  1.7398 -1.9012 -1.9279
 6589SOL     OW26765   5.967   6.321   3.155  0.4823  0.1318 -0.6084
 6589SOL    HW126766   6.063   6.296   3.142  0.6275  0.6762 -0.6188
 6589SOL    HW226767   5.909   6.264   3.097  0.6081 -1.7736  1.0710
 6590SOL     OW26768   6.508   1.313   2.800  0.2246 -0.0912 -0.1283
 6590SOL    HW126769   6.590   1.266   2.767 -0.4844 -1.2279 -0.3009
 6590SOL    HW226770   6.515   1.325   2.899  0.3590 -0.6863 -0.0610
 6591SOL     OW26771   5.934   4.348   2.524  0.0387 -0.4890  0.5018
 6591SOL    HW126772   5.858   4.285   2.537  0.5021 -1.2668 -0.5452
 6591SOL    HW226773   6.003   4.307   2.464  0.4330  0.9226 -0.0434
 6592SOL     OW26774   4.432   5.835   2.781  0.1538  0.0363  0.2058
 6592SOL    HW126775   4.382   5.919   2.804 -1.7586 -0.5015 -1.7709
 6592SOL    HW226776   4.491   5.853   2.702 -0.7828 -0.6361 -0.6575
 6593SOL     OW26777   0.475   6.141   1.693 -0.2920 -0.1459  0.2842
 6593SOL    HW126778   0.537   6.128   1.616  0.0500  1.9349  0.1876
 6593SOL    HW226779   0.527   6.163   1.775 -0.7627 -0.7188  0.7471
 6594SOL     OW26780   1.305   2.320   5.499  0.0744  0.2896  0.5338
 6594SOL    HW126781   1.352   2.263   5.431  0.6342 -0.2164  1.3345
 6594SOL    HW226782   1.296   2.413   5.464 -0.9330 -0.2996 -0.8305
 6595SOL     OW26783   5.440   4.263   5.429 -0.0183  0.0534  0.3031
 6595SOL    HW126784   5.528   4.293   5.390  0.2480  0.5127  1.2327
 6595SOL    HW226785   5.428   4.165   5.413 -0.2799  0.3727 -1.6081
 6596SOL     OW26786   1.656   3.932   4.224  0.6327  0.5954  0.2948
 6596SOL    HW126787   1.699   3.851   4.264  0.8217 -0.1921 -1.4501
 6596SOL    HW226788   1.586   3.967   4.287  0.3271 -1.1093  0.9390
 6597SOL     OW26789   0.289   6.307   2.337  0.4806  0.5640  0.0878
 6597SOL    HW126790   0.211   6.358   2.302 -0.2895  0.2786  1.3502
 6597SOL    HW226791   0.312   6.341   2.429  0.0518 -1.2650  0.8832
 6598SOL     OW26792   0.053   2.194   0.376 -0.0122  0.8619 -0.6287
 6598SOL    HW126793   0.079   2.219   0.469  0.0857  0.3072 -0.5090
 6598SOL    HW226794   0.134   2.197   0.317 -0.0492  1.0784 -0.6708
 6599SOL     OW26795   5.922   4.084   3.615 -0.1786  1.3279 -0.2683
 6599SOL    HW126796   5.971   4.088   3.528  0.3340  0.5324 -0.0222
 6599SOL    HW226797   5.944   4.165   3.669  1.6070  0.5627  0.2181
 6600SOL     OW26798   0.603   5.885   6.978  0.4245  0.2595  0.2409
 6600SOL    HW126799   0.691   5.931   6.968  1.1043 -1.1533 -0.3722
 6600SOL    HW226800   0.593   5.815   6.908 -0.4924 -0.6953  1.2947
 6601SOL     OW26801   6.015   1.317   3.820 -0.5001  0.5142 -0.4565
 6601SOL    HW126802   6.054   1.290   3.732  1.6028  1.3582  0.1766
 6601SOL    HW226803   5.953   1.246   3.852  0.3017 -0.7528 -1.6499
 6602SOL     OW26804   1.375   4.435   0.955  0.4923  0.0777  0.3307
 6602SOL    HW126805   1.376   4.346   0.999  0.8822  0.2116  0.5941
 6602SOL    HW226806   1.416   4.427   0.864 -0.3333 -0.2030 -0.0166
 6603SOL     OW26807   6.662   6.571   7.064 -0.1086 -0.5347 -0.3013
 6603SOL    HW126808   6.645   6.666   7.088  0.1544 -0.8398  1.1540
 6603SOL    HW226809   6.575   6.524   7.046 -0.4666 -0.7747  1.9696
 6604SOL     OW26810   4.405   4.015   3.564  0.2233 -0.2243  0.1498
 6604SOL    HW126811   4.336   4.007   3.493 -0.6488 -1.3617  1.1070
 6604SOL    HW226812   4.428   3.924   3.599  0.5388  0.3204  1.3993
 6605SOL     OW26813   4.307   6.753   6.787 -0.7939  0.4506 -0.4404
 6605SOL    HW126814   4.231   6.725   6.728  0.1263 -0.1955 -1.3411
 6605SOL    HW226815   4.389   6.704   6.760 -0.4504 -0.1780  1.6815
 6606SOL     OW26816   6.805   4.680   7.136  0.8161  0.1239 -0.3297
 6606SOL    HW126817   6.884   4.739   7.147  2.2279 -2.1227  2.0623
 6606SOL    HW226818   6.834   4.591   7.099 -0.7082 -0.4141 -0.2988
 6607SOL     OW26819   2.851   5.984   0.204 -0.1529 -0.3910  0.4830
 6607SOL    HW126820   2.906   6.055   0.247 -0.6738 -1.1653  2.4527
 6607SOL    HW226821   2.765   5.974   0.254  0.2943 -3.0133  0.7609
 6608SOL     OW26822   3.506   0.741   2.444  0.7702 -0.6928  0.0943
 6608SOL    HW126823   3.410   0.716   2.433  0.2025  1.3709  0.1303
 6608SOL    HW226824   3.560   0.658   2.459 -1.0434 -1.8580  0.4478
 6609SOL     OW26825   0.837   5.167   0.430  0.1488  0.2569 -0.3992
 6609SOL    HW126826   0.922   5.129   0.468 -0.8072 -0.9579  0.5861
 6609SOL    HW226827   0.812   5.116   0.348  1.5546  2.0845 -2.0145
 6610SOL     OW26828   5.318   5.066   6.610  0.2100 -0.3439 -0.3713
 6610SOL    HW126829   5.360   5.132   6.546 -2.1009  2.3850  0.8132
 6610SOL    HW226830   5.390   5.020   6.661  1.9362  1.2171 -1.3060
 6611SOL     OW26831   4.532   7.059   4.102 -0.0619  0.1879 -0.3876
 6611SOL    HW126832   4.559   7.151   4.130 -0.9492  0.5555 -0.7082
 6611SOL    HW226833   4.494   7.010   4.181  1.2592 -0.2417  0.0019
 6612SOL     OW26834   2.617   5.469   7.013  0.2623  0.0041  0.8908
 6612SOL    HW126835   2.603   5.568   7.010 -1.6948 -0.2408  1.1407
 6612SOL    HW226836   2.564   5.430   7.088  1.3640 -1.1826  1.0671
 6613SOL     OW26837   3.512   0.818   1.563  0.0446  0.2931 -0.0048
 6613SOL    HW126838   3.415   0.834   1.543  0.2643  0.8297 -0.6588
 6613SOL    HW226839   3.540   0.729   1.526 -0.2677  0.0107  0.4339
 6614SOL     OW26840   2.152   2.459   0.288  0.1106  0.0518  0.4114
 6614SOL    HW126841   2.172   2.545   0.241 -2.2213 -0.7998 -2.2707
 6614SOL    HW226842   2.069   2.470   0.344  0.2065 -0.2654  0.6182
 6615SOL     OW26843   3.946   2.875   6.023 -0.3231  0.4526 -0.2514
 6615SOL    HW126844   4.017   2.927   5.975 -0.7782  0.4457 -0.9522
 6615SOL    HW226845   3.888   2.938   6.074 -1.3207  0.7301 -1.6904
 6616SOL     OW26846   1.070   7.318   3.141 -1.1869  0.0906 -0.0020
 6616SOL    HW126847   1.131   7.327   3.219 -1.0688 -2.4756  0.2616
 6616SOL    HW226848   0.975   7.327   3.171 -1.1988 -1.9373  0.6806
 6617SOL     OW26849   2.404   5.274   3.915 -0.0542  0.3661 -0.0616
 6617SOL    HW126850   2.503   5.275   3.902 -0.2193 -2.4923 -2.1735
 6617SOL    HW226851   2.367   5.367   3.908  2.1085  1.0868 -2.5528
 6618SOL     OW26852   2.346   7.114   3.521  0.2750 -0.4237  0.1701
 6618SOL    HW126853   2.331   7.058   3.603  0.2784 -2.4237 -1.1826
 6618SOL    HW226854   2.407   7.066   3.458  0.3864  1.1653 -0.9533
 6619SOL     OW26855   4.558   5.276   6.542 -0.5786 -0.3901  0.1862
 6619SOL    HW126856   4.636   5.268   6.479 -0.8786 -1.7088 -0.0430
 6619SOL    HW226857   4.570   5.213   6.618 -0.0451  1.4671  1.6623
 6620SOL     OW26858   2.120   7.006   5.622 -0.1680  0.6414 -0.0587
 6620SOL    HW126859   2.209   6.994   5.666 -1.3296 -2.0659  1.7057
 6620SOL    HW226860   2.083   6.916   5.596 -3.4974  1.4045  1.6116
 6621SOL     OW26861   6.657   3.230   1.508 -0.2013  0.4673 -0.4591
 6621SOL    HW126862   6.730   3.241   1.576  0.2901  0.7022 -1.0201
 6621SOL    HW226863   6.633   3.134   1.499  1.1535  0.2033 -1.4247
 6622SOL     OW26864   4.124   6.747   6.593  0.2824  0.2276  0.1198
 6622SOL    HW126865   4.052   6.678   6.584 -0.5586  1.0960  0.0974
 6622SOL    HW226866   4.153   6.777   6.501  0.8601 -0.3043  0.1235
 6623SOL     OW26867   2.692   1.802   3.632  0.6974  0.4031 -0.1658
 6623SOL    HW126868   2.792   1.804   3.625  0.8100 -0.5766  1.0542
 6623SOL    HW226869   2.664   1.830   3.724 -0.2100  1.5196 -0.7628
 6624SOL     OW26870   3.078   6.661   7.328 -0.0654  0.0417 -0.3156
 6624SOL    HW126871   3.174   6.644   7.306  0.2888  1.6691 -0.0813
 6624SOL    HW226872   3.072   6.709   7.416 -1.0934 -0.0294 -0.3383
 6625SOL     OW26873   1.005   6.425   4.581 -0.0939 -0.4026  0.1765
 6625SOL    HW126874   0.997   6.327   4.562  1.8080 -0.4538 -0.4586
 6625SOL    HW226875   1.100   6.454   4.566 -1.1044  1.9951 -1.8426
 6626SOL     OW26876   5.661   6.480   3.591 -0.4986 -0.4908 -0.1234
 6626SOL    HW126877   5.567   6.456   3.569 -0.2126 -1.2487 -0.5158
 6626SOL    HW226878   5.662   6.536   3.674 -1.1336 -2.1909  1.0507
 6627SOL     OW26879   2.181   3.091   0.081 -0.2121  0.2677 -0.1312
 6627SOL    HW126880   2.100   3.083   0.139  0.8899 -0.0446  1.4054
 6627SOL    HW226881   2.185   3.013   0.020 -0.4470 -0.3282  0.6037
 6628SOL     OW26882   1.684   4.497   4.874  0.1391 -0.6190 -0.1860
 6628SOL    HW126883   1.622   4.521   4.800 -0.1276 -2.8628 -0.7261
 6628SOL    HW226884   1.659   4.546   4.957 -1.6706 -0.6788 -0.6903
 6629SOL     OW26885   2.737   3.276   0.762 -0.0671 -0.0751  0.2978
 6629SOL    HW126886   2.709   3.198   0.707  0.0681 -1.7121  2.4549
 6629SOL    HW226887   2.789   3.243   0.842 -0.5136  2.1633  1.5501
 6630SOL     OW26888   4.800   7.263   0.351  0.5140  0.5183 -0.6072
 6630SOL    HW126889   4.888   7.283   0.308  0.5863 -1.0354 -1.1992
 6630SOL    HW226890   4.732   7.329   0.318  1.1783  0.9936 -1.0541
 6631SOL     OW26891   4.121   0.200   2.461 -0.1456 -0.1633 -0.9017
 6631SOL    HW126892   4.179   0.281   2.475  1.3942 -1.4507  0.3910
 6631SOL    HW226893   4.133   0.167   2.367  3.1206 -1.7751 -0.0242
 6632SOL     OW26894   1.884   1.890   1.406  0.6970 -0.4932 -0.5752
 6632SOL    HW126895   1.968   1.889   1.351 -0.6634  1.7332 -2.7766
 6632SOL    HW226896   1.804   1.893   1.345 -0.9779 -1.4799  1.5026
 6633SOL     OW26897   5.874   0.876   5.281 -0.2293 -0.0821  0.3989
 6633SOL    HW126898   5.963   0.903   5.246  0.1359 -0.4095  1.0644
 6633SOL    HW226899   5.832   0.953   5.329  0.3196 -0.3456  1.3168
 6634SOL     OW26900   0.860   2.645   0.481 -0.1990  0.2282  0.3441
 6634SOL    HW126901   0.932   2.696   0.433  0.8289 -2.1135 -0.6875
 6634SOL    HW226902   0.899   2.602   0.563 -0.6631 -0.2817  0.2970
 6635SOL     OW26903   3.196   2.817   0.727  0.1050 -0.0531  0.3043
 6635SOL    HW126904   3.267   2.887   0.719  1.0822 -0.9209  1.2748
 6635SOL    HW226905   3.187   2.769   0.640  2.4586 -1.5856  0.8585
 6636SOL     OW26906   1.947   3.230   3.569  0.3223  0.2739 -0.5913
 6636SOL    HW126907   2.000   3.292   3.626  0.7189 -0.6158  0.0337
 6636SOL    HW226908   1.898   3.281   3.499 -1.0935  1.5120  1.2692
 6637SOL     OW26909   3.409   3.786   5.262  0.4134 -0.4075 -0.2441
 6637SOL    HW126910   3.436   3.881   5.247 -0.4615  0.1104  1.4101
 6637SOL    HW226911   3.335   3.781   5.329 -0.5321 -2.1598 -1.3493
 6638SOL     OW26912   2.007   6.566   0.274  0.3399  0.0253 -0.5032
 6638SOL    HW126913   2.033   6.470   0.274  1.6843  0.3711  1.0743
 6638SOL    HW226914   2.043   6.611   0.356  0.8722  2.1576 -1.8587
 6639SOL     OW26915   5.409   6.777   3.322 -0.0250  0.1296 -0.0107
 6639SOL    HW126916   5.487   6.721   3.296  0.1750  0.7757 -0.8138
 6639SOL    HW226917   5.440   6.857   3.374 -0.2791 -0.3153  0.8415
 6640SOL     OW26918   4.254   3.171   0.004 -0.0450  0.1460 -0.3290
 6640SOL    HW126919   4.302   3.094  -0.037  0.6355  0.3927 -0.0214
 6640SOL    HW226920   4.181   3.138   0.063  0.6732 -0.2932  0.3354
 6641SOL     OW26921   4.074   1.335   2.121 -0.0722  0.4822  0.1467
 6641SOL    HW126922   4.097   1.330   2.023 -0.8178  1.3470 -0.0855
 6641SOL    HW226923   4.133   1.401   2.166 -1.1648  1.7075 -0.1770
 6642SOL     OW26924   0.788   5.044   1.795  0.6655 -0.2736 -0.3027
 6642SOL    HW126925   0.769   4.997   1.709 -0.3790 -0.6005  0.0955
 6642SOL    HW226926   0.803   5.141   1.777  0.3348 -0.3176 -0.8414
 6643SOL     OW26927   3.090   5.227   0.898  0.3347  0.1301 -0.1894
 6643SOL    HW126928   3.051   5.219   0.807 -0.1347 -0.6890  0.0814
 6643SOL    HW226929   3.156   5.303   0.900  1.2729 -0.6377 -1.5193
 6644SOL     OW26930   3.875   0.087   0.648  0.1024  0.6172  0.2419
 6644SOL    HW126931   3.873   0.017   0.720 -0.4302  1.5485  1.1410
 6644SOL    HW226932   3.869   0.177   0.690 -0.0083  1.1733 -0.9735
 6645SOL     OW26933   6.418   2.278   2.445 -0.2851  0.3064  0.1752
 6645SOL    HW126934   6.477   2.212   2.398 -0.1516  0.2543  0.4162
 6645SOL    HW226935   6.391   2.349   2.380 -0.5471 -0.0597 -0.1213
 6646SOL     OW26936   3.771   2.096   2.081 -0.2364 -0.1175  0.3764
 6646SOL    HW126937   3.863   2.090   2.044 -0.1909  0.4695  0.3997
 6646SOL    HW226938   3.707   2.119   2.008 -0.4239 -0.9149  0.2825
 6647SOL     OW26939   5.792   2.376   1.450  0.1652  0.2466  0.0944
 6647SOL    HW126940   5.720   2.306   1.443 -0.2231  0.5764  0.7264
 6647SOL    HW226941   5.872   2.347   1.397 -0.4002 -0.1668 -0.5371
 6648SOL     OW26942   6.499   5.679   6.211 -0.1800 -0.2893 -0.8723
 6648SOL    HW126943   6.492   5.744   6.287 -1.0431 -1.0214 -0.3249
 6648SOL    HW226944   6.578   5.703   6.155  1.2619 -0.5199  1.0044
 6649SOL     OW26945   6.233   7.332   3.408  0.3079  0.1551 -0.2850
 6649SOL    HW126946   6.309   7.274   3.382 -0.4473 -0.6160 -0.7922
 6649SOL    HW226947   6.197   7.379   3.327  1.3059  1.8096  0.2155
 6650SOL     OW26948   0.213   0.720   7.322 -0.2612 -0.2397  0.2353
 6650SOL    HW126949   0.230   0.641   7.381 -1.7636 -1.0286 -0.3584
 6650SOL    HW226950   0.173   0.689   7.235  0.7425  1.0158 -0.7096
 6651SOL     OW26951   2.617   3.604   4.788 -0.5027 -0.0511 -0.5030
 6651SOL    HW126952   2.555   3.525   4.791 -0.3409 -0.2367 -1.7758
 6651SOL    HW226953   2.712   3.572   4.784 -0.3126  0.2354  1.1141
 6652SOL     OW26954   6.638   5.211   1.410  0.2698 -0.6895  0.6907
 6652SOL    HW126955   6.700   5.140   1.379  0.4311  0.0287 -0.7006
 6652SOL    HW226956   6.690   5.287   1.449  0.2600 -0.1674 -0.3066
 6653SOL     OW26957   6.505   6.891   0.589 -0.4698  0.0061  0.2881
 6653SOL    HW126958   6.465   6.983   0.587  0.5860  0.4572 -0.7728
 6653SOL    HW226959   6.475   6.839   0.509 -1.0609 -0.5872  0.8830
 6654SOL     OW26960   0.102   5.784   4.823 -0.4117  0.0764  0.3516
 6654SOL    HW126961   0.053   5.869   4.805 -1.6345 -0.6793  0.0957
 6654SOL    HW226962   0.039   5.707   4.821  0.8653 -0.9827 -0.5313
 6655SOL     OW26963   2.501   4.564   5.726 -0.3490 -0.4111 -0.1285
 6655SOL    HW126964   2.433   4.562   5.653 -0.6911  0.0677  0.1729
 6655SOL    HW226965   2.492   4.649   5.778  0.2282 -0.5159  0.1549
 6656SOL     OW26966   0.339   1.827   4.014  0.1269 -0.0682 -0.5566
 6656SOL    HW126967   0.329   1.784   3.925 -1.3379 -0.4834 -0.2093
 6656SOL    HW226968   0.330   1.757   4.086 -1.2662  0.6407 -0.0210
 6657SOL     OW26969   3.408   6.890   1.082  0.1119 -0.3640 -0.4675
 6657SOL    HW126970   3.455   6.809   1.117  0.0440  0.2211  1.0006
 6657SOL    HW226971   3.389   6.953   1.158  0.6654  1.2819 -1.6701
 6658SOL     OW26972   5.468   5.057   1.749 -0.3825  0.4634  0.1097
 6658SOL    HW126973   5.553   5.017   1.713  1.3430  2.3199  1.9757
 6658SOL    HW226974   5.448   5.142   1.700 -1.1949  0.0202 -0.3382
 6659SOL     OW26975   3.683   1.524   0.701 -0.3709 -0.0343  0.5091
 6659SOL    HW126976   3.637   1.477   0.626 -2.4577  2.2044  0.3034
 6659SOL    HW226977   3.742   1.595   0.663  0.8532 -0.8423  0.8946
 6660SOL     OW26978   1.444   4.697   3.813 -0.4061 -0.2918 -0.6138
 6660SOL    HW126979   1.386   4.678   3.734 -0.7383  0.7264 -0.6239
 6660SOL    HW226980   1.500   4.616   3.834 -1.7518 -1.2573 -0.6651
 6661SOL     OW26981   6.656   5.252   3.692 -0.6674 -0.2717 -0.6389
 6661SOL    HW126982   6.567   5.283   3.659 -0.7551  0.6479  0.4309
 6661SOL    HW226983   6.724   5.263   3.620 -0.7621  2.1295 -0.3891
 6662SOL     OW26984   3.814   4.595   6.502  0.1934  0.0210 -0.1272
 6662SOL    HW126985   3.741   4.537   6.539  0.5023 -0.0123  0.4373
 6662SOL    HW226986   3.875   4.538   6.446  1.5896 -0.6150  1.9811
 6663SOL     OW26987   1.983   3.540   4.239 -1.0005  0.0710  0.3785
 6663SOL    HW126988   2.023   3.492   4.161  0.4339  1.5845  0.1335
 6663SOL    HW226989   1.993   3.484   4.321 -0.9515 -0.7940 -0.2060
 6664SOL     OW26990   0.256   3.346   3.327 -0.7726 -0.2481 -0.5562
 6664SOL    HW126991   0.263   3.414   3.255  3.4036  1.0972  0.9516
 6664SOL    HW226992   0.274   3.255   3.290 -1.6690  0.0337 -1.7094
 6665SOL     OW26993   5.493   0.093   4.285  0.4610 -0.3217  0.0096
 6665SOL    HW126994   5.487   0.181   4.239  0.0475  0.7698  2.1053
 6665SOL    HW226995   5.587   0.059   4.279  1.6785  2.3526  2.9312
 6666SOL     OW26996   3.229   1.983   1.638  0.4524 -0.3275 -0.4922
 6666SOL    HW126997   3.246   2.080   1.623 -1.1127 -0.0026 -0.1959
 6666SOL    HW226998   3.143   1.970   1.687  2.3755 -1.6983  2.7097
 6667SOL     OW26999   6.598   1.850   0.156  0.1139  0.1192 -0.2400
 6667SOL    HW127000   6.512   1.902   0.155  0.1390  0.2194  1.6506
 6667SOL    HW227001   6.601   1.791   0.075 -1.1792  1.0051 -0.9633
 6668SOL     OW27002   6.433   2.447   6.819  0.8580 -0.0558  0.3726
 6668SOL    HW127003   6.515   2.483   6.776  1.0121  0.8518  1.4228
 6668SOL    HW227004   6.457   2.386   6.894  0.5801 -1.0570 -0.3369
 6669SOL     OW27005   5.242   3.642   2.347 -0.5601 -0.0561 -0.4042
 6669SOL    HW127006   5.334   3.612   2.370 -0.1369  0.3169 -1.5654
 6669SOL    HW227007   5.176   3.572   2.375  0.1176 -0.5658 -0.0603
 6670SOL     OW27008   4.048   2.878   0.337  0.1424 -0.1430  0.6121
 6670SOL    HW127009   4.106   2.866   0.417  0.3715 -1.8876  0.1946
 6670SOL    HW227010   4.036   2.790   0.290  0.4306  0.9510 -1.5535
 6671SOL     OW27011   2.628   5.356   6.532 -0.3253 -0.6915  0.3253
 6671SOL    HW127012   2.553   5.419   6.514 -0.1437  0.0564  2.0682
 6671SOL    HW227013   2.668   5.377   6.621  1.0448 -1.9842  0.0324
 6672SOL     OW27014   5.745   2.195   7.112 -0.5472 -0.4926 -0.8934
 6672SOL    HW127015   5.794   2.133   7.174 -2.9398 -0.2730  1.2847
 6672SOL    HW227016   5.736   2.151   7.023  2.5919 -0.9949 -1.0290
 6673SOL     OW27017   3.722   0.595   4.230 -0.2596  0.7511 -0.3483
 6673SOL    HW127018   3.661   0.543   4.290 -1.3087  0.9734 -1.2082
 6673SOL    HW227019   3.668   0.638   4.157  0.8906  1.2068 -0.9361
 6674SOL     OW27020   3.246   7.095   2.201  0.1265  0.4225 -0.2045
 6674SOL    HW127021   3.252   7.069   2.297  0.4373  3.2363  0.5725
 6674SOL    HW227022   3.337   7.114   2.165  0.0480 -0.9683 -1.1677
 6675SOL     OW27023   6.048   1.956   1.910  0.1117 -0.3568 -0.2973
 6675SOL    HW127024   6.011   1.951   2.003  0.9907 -0.2025  0.0669
 6675SOL    HW227025   6.000   2.028   1.859 -2.0280 -2.0266 -0.7342
 6676SOL     OW27026   5.118   1.011   0.444 -0.0926  0.1077 -0.4411
 6676SOL    HW127027   5.099   0.977   0.351 -2.6951  0.6122 -0.1331
 6676SOL    HW227028   5.117   1.111   0.443 -0.9785  0.1059  0.2926
 6677SOL     OW27029   7.349   0.311   1.898 -0.1624 -0.1940 -0.5635
 6677SOL    HW127030   7.348   0.235   1.832 -1.3210 -0.3616 -0.3602
 6677SOL    HW227031   7.336   0.275   1.990  0.9142  0.0973 -0.2935
 6678SOL     OW27032   0.128   2.544   0.251 -0.0970 -0.5176  0.3966
 6678SOL    HW127033   0.054   2.487   0.217 -0.3976  1.0932 -1.7799
 6678SOL    HW227034   0.109   2.640   0.228  3.4400 -0.2570 -1.7261
 6679SOL     OW27035   4.373   7.217   6.901 -0.0439 -0.3380 -0.1054
 6679SOL    HW127036   4.442   7.284   6.930  2.2067 -2.3195 -0.7399
 6679SOL    HW227037   4.330   7.249   6.816  1.4046  0.0560 -0.7118
 6680SOL     OW27038   7.069   1.624   7.029 -0.5838  0.0991 -0.6935
 6680SOL    HW127039   7.013   1.667   6.957 -0.1411  1.0452 -0.4769
 6680SOL    HW227040   7.009   1.594   7.104 -0.9847 -0.3901 -1.2054
 6681SOL     OW27041   1.064   6.435   5.447  0.2604 -0.3018  0.1668
 6681SOL    HW127042   0.991   6.419   5.381  0.2646 -1.1521  0.3636
 6681SOL    HW227043   1.147   6.386   5.419  0.0134 -1.3461  1.2173
 6682SOL     OW27044   1.027   3.739   5.245 -0.3599  0.8277 -0.0482
 6682SOL    HW127045   1.124   3.740   5.220 -0.2191 -1.0377  0.3521
 6682SOL    HW227046   0.976   3.795   5.180  0.5897 -0.4967 -1.9819
 6683SOL     OW27047   3.104   0.688   3.905  0.1184  0.2724 -0.2052
 6683SOL    HW127048   3.182   0.749   3.917  0.2639  0.2979 -1.2015
 6683SOL    HW227049   3.055   0.713   3.821 -0.8744  0.1602  0.3271
 6684SOL     OW27050   7.019   7.179   1.137 -0.7974  0.7671 -0.3132
 6684SOL    HW127051   6.929   7.206   1.170 -0.6342  0.7191  0.1717
 6684SOL    HW227052   7.072   7.260   1.112 -0.8585  0.8099 -0.3031
 6685SOL     OW27053   5.238   5.725   3.814 -0.3330  0.3393 -0.2628
 6685SOL    HW127054   5.298   5.757   3.887 -1.2756 -1.2959  1.2464
 6685SOL    HW227055   5.189   5.803   3.775  2.3846  1.6583 -1.2306
 6686SOL     OW27056   0.012   4.137   3.513 -0.6737  0.3095  0.1282
 6686SOL    HW127057  -0.082   4.128   3.547 -0.0807 -0.1363  1.6979
 6686SOL    HW227058   0.025   4.077   3.434 -1.7949  0.5978 -0.2792
 6687SOL     OW27059   6.140   1.609   6.047  0.7728  0.1525 -0.3131
 6687SOL    HW127060   6.216   1.566   6.096  0.8173 -0.5198 -0.9692
 6687SOL    HW227061   6.055   1.560   6.067  0.2132  1.8524  1.6782
 6688SOL     OW27062   3.344   4.839   0.322  0.4443  0.1019  0.2964
 6688SOL    HW127063   3.247   4.822   0.333  0.4538  0.0743  0.3339
 6688SOL    HW227064   3.361   4.938   0.323  0.2101  0.1848 -1.3442
 6689SOL     OW27065   1.269   4.233   3.656  0.3400  0.4938 -0.3605
 6689SOL    HW127066   1.227   4.271   3.738  1.7592  0.1282  0.5527
 6689SOL    HW227067   1.211   4.161   3.618  1.1433 -1.4864  2.0826
 6690SOL     OW27068   7.026   3.940   4.827  0.6137 -0.0901  0.0458
 6690SOL    HW127069   6.928   3.933   4.844  1.0371 -1.9137  1.9518
 6690SOL    HW227070   7.042   3.995   4.745 -2.0695 -1.7226 -1.6289
 6691SOL     OW27071   0.073   6.639   5.911 -0.5093 -0.3796 -0.7288
 6691SOL    HW127072   0.052   6.705   5.839 -1.2241 -0.5625 -0.6922
 6691SOL    HW227073   0.168   6.609   5.902 -0.7398 -0.7627 -1.8738
 6692SOL     OW27074   6.272   1.037   7.303 -0.0069 -0.5184 -0.1259
 6692SOL    HW127075   6.305   0.954   7.347 -0.4721 -0.9502 -0.5738
 6692SOL    HW227076   6.195   1.075   7.355  0.4512 -0.1457  0.2901
 6693SOL     OW27077   7.127   2.653   5.365  0.4267  0.4917 -0.0478
 6693SOL    HW127078   7.028   2.647   5.368  0.3393  1.9000  0.4574
 6693SOL    HW227079   7.167   2.576   5.415 -0.4429  0.6719  0.9412
 6694SOL     OW27080   5.166   6.323   1.679 -0.2177  0.5656 -0.4760
 6694SOL    HW127081   5.186   6.402   1.620  0.1613  1.7198  1.1504
 6694SOL    HW227082   5.103   6.351   1.751 -0.0634 -0.6175  0.1262
 6695SOL     OW27083   1.066   4.323   4.288 -0.1810 -0.5850  0.3666
 6695SOL    HW127084   1.025   4.409   4.258  1.8504  0.1421 -0.3644
 6695SOL    HW227085   1.046   4.309   4.385 -0.3704  0.8142  0.5371
 6696SOL     OW27086   5.781   3.385   6.337  0.0011  0.6375 -0.3350
 6696SOL    HW127087   5.765   3.298   6.292 -0.7586  1.0867 -0.9549
 6696SOL    HW227088   5.856   3.434   6.290 -0.7845  1.1020 -1.1221
 6697SOL     OW27089   4.296   4.105   7.337  0.6463  0.0752 -0.8107
 6697SOL    HW127090   4.243   4.188   7.355  3.3482  1.4913  1.1095
 6697SOL    HW227091   4.349   4.082   7.419  2.9847 -1.2576 -2.6418
 6698SOL     OW27092   1.771   2.403   7.357  0.5235 -0.0514  0.2920
 6698SOL    HW127093   1.839   2.460   7.404  1.3667 -0.5297 -0.3419
 6698SOL    HW227094   1.814   2.356   7.281 -0.3037 -1.1376  0.4889
 6699SOL     OW27095   2.472   1.012   5.454  0.9261  0.2853 -0.3770
 6699SOL    HW127096   2.462   0.963   5.541 -0.2336  2.6102  0.8481
 6699SOL    HW227097   2.569   1.032   5.439  1.0891  0.3071  0.6211
 6700SOL     OW27098   6.121   7.106   4.623 -0.4998  0.0394 -0.4401
 6700SOL    HW127099   6.115   7.104   4.723 -1.8000 -2.0685 -0.5314
 6700SOL    HW227100   6.205   7.061   4.594  0.5717  1.8723 -0.2803
 6701SOL     OW27101   0.011   1.257   2.453 -0.3012  0.4303 -0.0241
 6701SOL    HW127102  -0.033   1.339   2.490  0.7897  1.4143 -0.8869
 6701SOL    HW227103   0.032   1.195   2.529  1.3905  2.1794  1.0037
 6702SOL     OW27104   1.624   6.138   1.550  0.0812 -0.2221  0.2833
 6702SOL    HW127105   1.699   6.118   1.614 -0.0696  0.8498  0.8180
 6702SOL    HW227106   1.602   6.056   1.498 -0.2030 -1.2887  2.0363
 6703SOL     OW27107   3.938   4.068   2.210 -0.0776  0.6724 -0.5667
 6703SOL    HW127108   4.023   4.115   2.187 -0.1159 -0.1956 -2.5727
 6703SOL    HW227109   3.960   3.981   2.255  0.1761 -0.1691 -2.2515
 6704SOL     OW27110   1.895   5.743   4.887  0.0692  0.1095 -0.6315
 6704SOL    HW127111   1.955   5.758   4.966  1.3544 -1.0851 -1.3639
 6704SOL    HW227112   1.823   5.812   4.887  1.4256  1.5698  0.2787
 6705SOL     OW27113   3.410   3.394   5.822  0.2215  0.2515 -0.2130
 6705SOL    HW127114   3.399   3.447   5.906  2.3952  0.1162  0.1838
 6705SOL    HW227115   3.322   3.353   5.797 -0.3054 -0.3936  2.4493
 6706SOL     OW27116   0.127   3.755   0.831 -0.1346  0.0060  0.2458
 6706SOL    HW127117   0.076   3.837   0.808  0.8418  0.6827  0.4522
 6706SOL    HW227118   0.074   3.699   0.894 -0.9052  0.3606 -0.0862
 6707SOL     OW27119   1.573   2.928   6.189 -0.1766  0.2039  0.8141
 6707SOL    HW127120   1.618   2.921   6.100  0.4442  0.9354  1.0615
 6707SOL    HW227121   1.553   2.837   6.224 -1.2043 -0.0849 -0.4588
 6708SOL     OW27122   4.850   2.016   2.903  0.0371  0.2541 -0.0286
 6708SOL    HW127123   4.923   2.025   2.971  0.8217  0.0019 -0.8311
 6708SOL    HW227124   4.798   2.101   2.899 -0.6918 -0.0798  1.6360
 6709SOL     OW27125   1.802   6.850   0.120  0.2898 -0.0597  0.0343
 6709SOL    HW127126   1.800   6.752   0.140  1.5148 -0.1666 -0.3219
 6709SOL    HW227127   1.843   6.865   0.030 -0.0709  0.7696  0.0001
 6710SOL     OW27128   5.103   0.723   4.161 -0.5519  0.7119  0.0147
 6710SOL    HW127129   5.017   0.764   4.191 -1.8120  0.2662 -2.8507
 6710SOL    HW227130   5.117   0.636   4.208 -1.1436  1.2716  1.2469
 6711SOL     OW27131   1.810   5.326   1.243 -0.4711 -0.0348 -0.0815
 6711SOL    HW127132   1.723   5.318   1.194 -0.7378 -0.4158  0.4451
 6711SOL    HW227133   1.807   5.405   1.304  0.2893  1.1287 -1.5260
 6712SOL     OW27134   1.230   4.613   2.033  0.0276 -0.1698 -0.2236
 6712SOL    HW127135   1.133   4.590   2.036  0.3899 -1.6549  0.2105
 6712SOL    HW227136   1.265   4.626   2.127  0.1808  0.6885 -0.3895
 6713SOL     OW27137   6.453   2.497   0.735 -0.2269 -0.1588 -0.0441
 6713SOL    HW127138   6.450   2.573   0.670 -0.7146 -1.6346 -1.8075
 6713SOL    HW227139   6.365   2.451   0.736  0.6684 -1.9387 -0.5575
 6714SOL     OW27140   1.742   7.236   1.016  0.0659 -0.5016  0.4800
 6714SOL    HW127141   1.687   7.175   0.958 -0.6419  1.5365 -1.0284
 6714SOL    HW227142   1.682   7.281   1.083  0.4014 -0.5118  0.7921
 6715SOL     OW27143   1.330   0.797   3.607 -0.0879  0.2566 -0.0323
 6715SOL    HW127144   1.272   0.873   3.636 -1.8545 -0.9961 -0.2134
 6715SOL    HW227145   1.287   0.710   3.633  1.6581 -0.7061 -0.2624
 6716SOL     OW27146   0.658   5.980   6.503 -0.3967  0.2089 -0.5070
 6716SOL    HW127147   0.752   6.012   6.491 -0.2781  0.1658  0.2745
 6716SOL    HW227148   0.596   6.058   6.501 -0.2721  0.3155 -0.3119
 6717SOL     OW27149   2.357   3.506   6.675 -0.0963  0.2975  0.4349
 6717SOL    HW127150   2.320   3.591   6.711  1.4153  0.3848  1.8425
 6717SOL    HW227151   2.435   3.526   6.616 -1.7536  0.0732 -1.8907
 6718SOL     OW27152   4.778   0.391   1.370 -0.3853 -0.2152  0.6527
 6718SOL    HW127153   4.726   0.474   1.390 -0.2631 -0.3441  1.5481
 6718SOL    HW227154   4.720   0.325   1.322 -0.7487  0.0289  0.7605
 6719SOL     OW27155   6.179   1.551   5.347 -0.0354 -1.0027 -0.8164
 6719SOL    HW127156   6.145   1.508   5.263 -2.3522  0.9059 -0.9173
 6719SOL    HW227157   6.124   1.631   5.367  2.9798  0.8503  0.3941
 6720SOL     OW27158   3.726   0.970   1.688  0.2751 -0.0841  0.1309
 6720SOL    HW127159   3.809   0.970   1.633  0.6312  1.7629  0.6437
 6720SOL    HW227160   3.651   0.930   1.634  1.1031 -0.2762 -0.9063
 6721SOL     OW27161   0.830   5.580   5.506 -0.2137 -0.3252  0.2185
 6721SOL    HW127162   0.866   5.557   5.416 -2.0841 -2.2686 -0.0663
 6721SOL    HW227163   0.795   5.673   5.505 -1.4787 -0.8096 -1.4674
 6722SOL     OW27164   6.103   0.372   3.226 -0.8312 -0.1014  0.0879
 6722SOL    HW127165   6.141   0.435   3.159 -0.7025 -0.5646 -0.2794
 6722SOL    HW227166   6.139   0.393   3.317 -2.2527  1.5618  0.2886
 6723SOL     OW27167   3.859   3.125   3.065  0.2449  0.2459 -0.6755
 6723SOL    HW127168   3.882   3.075   2.982  1.5474 -1.1875  0.5174
 6723SOL    HW227169   3.860   3.063   3.143 -0.3499  1.6906  0.5133
 6724SOL     OW27170   3.196   1.916   5.993 -0.0020  0.6657  0.2544
 6724SOL    HW127171   3.154   1.891   5.905  1.5541  1.0740 -0.6117
 6724SOL    HW227172   3.139   1.880   6.067  0.7791 -3.3080 -0.9150
 6725SOL     OW27173   4.120   0.893   1.790  0.1564  0.0532  0.0296
 6725SOL    HW127174   4.045   0.959   1.794  0.4094  0.4089 -0.8802
 6725SOL    HW227175   4.136   0.855   1.881  0.2475  1.5257  0.6587
 6726SOL     OW27176   2.138   6.067   1.600  0.1119 -0.2632  0.5471
 6726SOL    HW127177   2.168   5.989   1.655  0.5876  0.7345  1.7349
 6726SOL    HW227178   2.217   6.113   1.561 -0.1710 -0.3826 -0.1812
 6727SOL     OW27179   2.125   2.455   5.806 -0.3091 -0.4254  0.1387
 6727SOL    HW127180   2.183   2.386   5.849  0.0844  0.1847  0.5958
 6727SOL    HW227181   2.064   2.411   5.740  1.6829 -0.9324 -1.4413
 6728SOL     OW27182   3.327   5.849   1.174  0.0249  0.0595 -0.3885
 6728SOL    HW127183   3.254   5.912   1.148 -0.7195 -0.7336 -0.2346
 6728SOL    HW227184   3.307   5.758   1.137  1.0807 -0.1015 -0.5948
 6729SOL     OW27185   1.369   0.904   1.535 -0.3576 -0.6481 -0.1332
 6729SOL    HW127186   1.317   0.830   1.493  0.3688 -0.5420 -1.2266
 6729SOL    HW227187   1.410   0.872   1.621  0.5251 -1.7334 -0.9468
 6730SOL     OW27188   6.597   2.267   0.772 -0.4138 -0.0447 -0.4100
 6730SOL    HW127189   6.541   2.348   0.756 -0.7913 -0.0439  0.8344
 6730SOL    HW227190   6.541   2.185   0.761 -0.0132 -0.1367 -1.7420
 6731SOL     OW27191   3.816   6.516   5.929  0.8631 -0.8332 -0.4560
 6731SOL    HW127192   3.781   6.423   5.931 -0.5018 -0.3240  0.3602
 6731SOL    HW227193   3.755   6.573   5.873  1.8008 -0.4665 -1.1195
 6732SOL     OW27194   6.454   5.457   1.289  0.3855  0.0910  0.2133
 6732SOL    HW127195   6.469   5.364   1.322 -1.6113 -0.6363 -0.8746
 6732SOL    HW227196   6.455   5.521   1.366  1.8112 -0.8048  0.9572
 6733SOL     OW27197   1.940   5.847   5.152 -0.4151 -0.1309  0.0152
 6733SOL    HW127198   1.866   5.914   5.156 -0.3218 -0.0582  0.5437
 6733SOL    HW227199   1.930   5.783   5.228 -0.1797 -0.3753 -0.1629
 6734SOL     OW27200   4.902   2.907   0.535 -0.3762 -0.5868 -0.0987
 6734SOL    HW127201   4.838   2.903   0.458 -0.3476 -3.2996 -0.0272
 6734SOL    HW227202   4.866   2.853   0.611  1.7127 -1.6773  0.1546
 6735SOL     OW27203   6.019   0.011   7.055 -0.1938  0.0354  0.1271
 6735SOL    HW127204   5.928   0.041   7.029 -0.5334  0.4728  1.8071
 6735SOL    HW227205   6.048   0.058   7.138  0.9650 -1.1869  0.4316
 6736SOL     OW27206   0.788   6.057   4.646 -0.0795 -0.1071 -0.4853
 6736SOL    HW127207   0.855   6.057   4.720 -0.3926 -0.4587 -0.2021
 6736SOL    HW227208   0.724   6.133   4.660 -0.2303 -0.2666 -0.3149
 6737SOL     OW27209   3.000   6.067   6.870  0.1521  0.1423 -0.7412
 6737SOL    HW127210   2.923   6.118   6.908  0.2590 -0.2376  0.0011
 6737SOL    HW227211   2.969   6.013   6.792 -0.1011  0.8277 -1.1123
 6738SOL     OW27212   1.848   4.858   2.980 -0.5154  0.0466 -0.2259
 6738SOL    HW127213   1.806   4.843   3.070  0.1663 -0.6860 -0.0279
 6738SOL    HW227214   1.947   4.851   2.988 -0.3260  2.0127 -0.6448
 6739SOL     OW27215   6.105   4.354   7.190 -0.2622  0.1551  0.3552
 6739SOL    HW127216   6.071   4.442   7.158  0.5768 -0.0200 -1.0678
 6739SOL    HW227217   6.197   4.365   7.227 -0.2636 -0.0714  0.4301
 6740SOL     OW27218   6.090   3.624   6.686 -0.7494  0.3577  0.0640
 6740SOL    HW127219   6.061   3.555   6.619 -1.9956  0.3263  0.6317
 6740SOL    HW227220   6.171   3.671   6.651 -3.0769  2.3860 -2.8362
 6741SOL     OW27221   2.062   6.085   0.273 -0.2606  0.0064 -0.4677
 6741SOL    HW127222   2.000   6.016   0.234 -0.7701  0.3831 -0.3302
 6741SOL    HW227223   2.155   6.069   0.239 -0.3661 -0.7787 -0.3969
 6742SOL     OW27224   4.602   5.667   5.383  0.0247 -0.4965  0.2983
 6742SOL    HW127225   4.592   5.569   5.367  0.7636 -0.2429 -1.8293
 6742SOL    HW227226   4.592   5.716   5.297  1.7616  1.1495  1.0051
 6743SOL     OW27227   3.367   1.078   6.666  0.4872 -0.1458 -0.3619
 6743SOL    HW127228   3.419   1.034   6.592  2.0568 -0.6751  1.0050
 6743SOL    HW227229   3.344   1.010   6.736  0.0375  0.5620  0.1909
 6744SOL     OW27230   3.805   2.428   2.029 -0.1919  0.1178  0.7065
 6744SOL    HW127231   3.860   2.402   1.950 -0.5796  1.1633  0.0786
 6744SOL    HW227232   3.743   2.353   2.052 -1.5530  0.5800 -1.2991
 6745SOL     OW27233   2.765   6.814   1.175 -0.0610  0.0027  0.7549
 6745SOL    HW127234   2.745   6.770   1.263  0.5994  0.0328  0.9265
 6745SOL    HW227235   2.690   6.797   1.111 -0.4984 -0.1058  1.2926
 6746SOL     OW27236   3.473   0.805   7.250  0.2721  0.6327 -0.5367
 6746SOL    HW127237   3.492   0.827   7.346  1.5608 -0.1964 -0.5923
 6746SOL    HW227238   3.432   0.714   7.244  1.3997  0.1397 -0.8697
 6747SOL     OW27239   3.959   1.983   1.898 -0.1142 -0.2308  0.1093
 6747SOL    HW127240   3.937   1.974   1.801  3.3814 -0.4052 -0.7266
 6747SOL    HW227241   3.965   1.893   1.940 -0.2778 -0.2152  0.1670
 6748SOL     OW27242   3.948   4.427   5.250 -0.2956  0.5595  0.3906
 6748SOL    HW127243   3.967   4.489   5.174  0.7944 -1.3257 -0.9156
 6748SOL    HW227244   3.851   4.405   5.252 -0.3267  0.5939 -0.5095
 6749SOL     OW27245   6.910   4.870   5.591  0.0051  0.0520  1.1415
 6749SOL    HW127246   7.007   4.886   5.572  0.2532 -1.2287  1.3236
 6749SOL    HW227247   6.867   4.957   5.617  1.1913  0.5537  1.4685
 6750SOL     OW27248   7.136   2.640   3.414  0.2252 -0.4335  0.0879
 6750SOL    HW127249   7.161   2.543   3.415 -0.9938 -0.7642 -0.1896
 6750SOL    HW227250   7.199   2.691   3.355  1.5102 -0.8725  1.0622
 6751SOL     OW27251   2.118   2.647   2.147  0.1743  0.3485 -0.4300
 6751SOL    HW127252   2.044   2.713   2.156  0.2930  0.8181 -2.5981
 6751SOL    HW227253   2.141   2.636   2.050  1.1766 -1.7358  0.0116
 6752SOL     OW27254   7.226   2.666   2.780 -0.2474 -0.4178  0.0754
 6752SOL    HW127255   7.287   2.600   2.736 -1.4859 -1.6167  0.1469
 6752SOL    HW227256   7.256   2.759   2.757  1.7563 -0.9734  0.3156
 6753SOL     OW27257   5.608   2.407   7.221 -0.2586  0.4786 -0.3474
 6753SOL    HW127258   5.658   2.343   7.163 -0.7833 -1.0118  0.8159
 6753SOL    HW227259   5.601   2.371   7.314 -1.6487  1.6436  0.0314
 6754SOL     OW27260   1.813   4.290   5.209  0.4807  0.9126  0.6402
 6754SOL    HW127261   1.788   4.249   5.122 -0.2322  1.1496  0.7315
 6754SOL    HW227262   1.865   4.374   5.193  0.3365  0.9635  0.4438
 6755SOL     OW27263   3.732   0.836   5.463  0.6738  0.1890 -0.4059
 6755SOL    HW127264   3.821   0.861   5.501  1.7392  0.3229 -2.9003
 6755SOL    HW227265   3.682   0.918   5.438 -1.4063  0.2613  3.5740
 6756SOL     OW27266   0.978   2.448   1.473 -0.1385  0.3282  0.3466
 6756SOL    HW127267   1.002   2.544   1.456  0.7318 -0.0846 -0.8515
 6756SOL    HW227268   1.047   2.406   1.531 -0.5492  0.4408  0.9170
 6757SOL     OW27269   5.302   3.585   7.063  0.1377 -0.0718 -0.0478
 6757SOL    HW127270   5.385   3.536   7.087  0.3640  0.6188  0.6200
 6757SOL    HW227271   5.262   3.625   7.145  0.6277  1.8832 -0.7146
 6758SOL     OW27272   3.442   6.893   2.623 -0.2914 -0.0076  0.0808
 6758SOL    HW127273   3.521   6.919   2.678 -2.6527 -0.2866  3.8488
 6758SOL    HW227274   3.444   6.795   2.605 -0.4131 -0.2369  1.2848
 6759SOL     OW27275   0.013   5.494   2.627 -0.3355 -0.7056  0.1674
 6759SOL    HW127276  -0.042   5.572   2.597  1.1227  0.0028 -0.7165
 6759SOL    HW227277   0.089   5.480   2.563 -0.3595 -2.6180  0.5310
 6760SOL     OW27278   4.547   3.799   5.322  0.0425 -0.1213  0.1130
 6760SOL    HW127279   4.635   3.840   5.350 -0.8161  0.8407  1.4723
 6760SOL    HW227280   4.491   3.783   5.404 -0.4654 -2.1129 -0.6121
 6761SOL     OW27281   3.338   5.357   0.899  0.1741 -0.1486  0.1230
 6761SOL    HW127282   3.384   5.268   0.902  2.7207  1.0613 -0.8818
 6761SOL    HW227283   3.366   5.411   0.979  1.1657  0.8994 -0.9157
 6762SOL     OW27284   4.977   1.641   1.134 -0.2554 -0.8966  0.6810
 6762SOL    HW127285   5.040   1.565   1.117  2.0411  0.8523  1.0889
 6762SOL    HW227286   5.017   1.702   1.203 -1.4746  1.3192 -0.5270
 6763SOL     OW27287   0.185   3.779   5.874  0.7103  0.5366  0.4107
 6763SOL    HW127288   0.224   3.687   5.881 -0.2139  0.0800 -0.2963
 6763SOL    HW227289   0.209   3.819   5.786  0.7268  0.7922  0.5310
 6764SOL     OW27290   3.321   0.888   6.850 -0.9407 -0.5388 -0.1291
 6764SOL    HW127291   3.387   0.916   6.920 -1.3716 -0.9600  0.4515
 6764SOL    HW227292   3.301   0.790   6.861 -2.0710 -0.2935  0.0500
 6765SOL     OW27293   4.193   3.265   3.597 -0.4104  0.4927  0.0091
 6765SOL    HW127294   4.115   3.311   3.640 -1.4138 -0.7314 -0.4717
 6765SOL    HW227295   4.200   3.172   3.633  0.2554  0.2874 -0.6504
 6766SOL     OW27296   1.980   0.860   0.789 -0.3432  0.4067  0.4738
 6766SOL    HW127297   2.026   0.783   0.744 -0.9129  0.8519 -0.9011
 6766SOL    HW227298   2.034   0.943   0.777 -1.0852  0.7690 -0.4601
 6767SOL     OW27299   0.014   3.795   5.253 -0.6737  0.1137 -0.1261
 6767SOL    HW127300  -0.066   3.855   5.262 -0.6936  0.3690 -1.8069
 6767SOL    HW227301   0.090   3.848   5.216  0.6289  0.1495  2.5238
 6768SOL     OW27302   2.891   4.879   4.457 -0.0375  0.1212  0.1088
 6768SOL    HW127303   2.966   4.818   4.432 -0.4126  0.4399 -1.9001
 6768SOL    HW227304   2.897   4.963   4.403 -0.4875  1.1809  1.6520
 6769SOL     OW27305   7.041   1.047   1.572  0.0244 -0.2135 -0.4650
 6769SOL    HW127306   7.051   1.125   1.510 -1.0482 -0.1611 -0.5734
 6769SOL    HW227307   6.996   1.077   1.656 -0.0683 -0.6462 -0.3618
 6770SOL     OW27308   1.480   5.029   3.190  0.6530 -0.6926 -0.3020
 6770SOL    HW127309   1.540   5.039   3.110  3.3256  0.0857  1.7312
 6770SOL    HW227310   1.388   5.059   3.166  1.7316  0.8734 -2.7183
 6771SOL     OW27311   4.444   1.742   3.854  0.3017 -0.3649  0.1615
 6771SOL    HW127312   4.487   1.759   3.765  1.2703 -0.2427  0.6494
 6771SOL    HW227313   4.514   1.724   3.923 -0.2751  2.3777  1.5330
 6772SOL     OW27314   6.817   2.253   0.906  0.3555  0.3335 -0.2384
 6772SOL    HW127315   6.726   2.256   0.865  0.6260  0.6376 -0.8168
 6772SOL    HW227316   6.886   2.256   0.834  0.8378  0.9659  0.2434
 6773SOL     OW27317   1.727   4.628   4.476  0.4109  0.8567 -0.3988
 6773SOL    HW127318   1.817   4.587   4.491  0.0753  0.6979  1.2698
 6773SOL    HW227319   1.687   4.589   4.393  1.5468  0.3392 -0.7145
 6774SOL     OW27320   0.584   1.391   0.839  0.2645 -0.4821  0.4885
 6774SOL    HW127321   0.634   1.404   0.925  1.1202  1.9252 -0.3394
 6774SOL    HW227322   0.552   1.480   0.806  1.2495 -1.1767 -2.4423
 6775SOL     OW27323   5.666   6.825   6.185  0.7620 -0.4193 -0.6120
 6775SOL    HW127324   5.575   6.848   6.152  1.3352  1.0190 -1.1966
 6775SOL    HW227325   5.658   6.771   6.270 -0.6168 -0.2961 -0.6610
 6776SOL     OW27326   4.030   1.149   5.709 -0.4357  0.1517  0.0809
 6776SOL    HW127327   4.071   1.101   5.786 -0.2682 -1.9215 -1.2558
 6776SOL    HW227328   4.079   1.234   5.692  0.6234 -0.2390  1.1557
 6777SOL     OW27329   0.270   7.267   0.895 -0.2097 -0.5836 -0.2832
 6777SOL    HW127330   0.173   7.246   0.906 -0.5898  0.9004 -0.6954
 6777SOL    HW227331   0.309   7.210   0.823 -0.0936 -3.1753  1.7695
 6778SOL     OW27332   3.688   6.976   0.962 -0.2624  0.3084 -0.7455
 6778SOL    HW127333   3.602   6.998   0.915 -0.5266  1.0673  0.0614
 6778SOL    HW227334   3.761   6.964   0.895 -1.1605 -1.1217 -1.4846
 6779SOL     OW27335   5.840   2.146   1.035 -0.5767 -0.0085  0.3594
 6779SOL    HW127336   5.778   2.118   1.108 -1.1561  1.5116  0.4716
 6779SOL    HW227337   5.860   2.068   0.976 -2.6853 -0.5142  0.2694
 6780SOL     OW27338   3.452   7.152   4.374  0.1913  0.0466 -0.3593
 6780SOL    HW127339   3.392   7.117   4.302  0.0725 -0.3366 -0.0713
 6780SOL    HW227340   3.513   7.079   4.405  0.5373  0.3275 -0.3706
 6781SOL     OW27341   2.593   2.205   2.441  0.1508  0.0849 -0.4920
 6781SOL    HW127342   2.668   2.145   2.413  0.1508  0.1217 -0.5716
 6781SOL    HW227343   2.621   2.300   2.432 -0.3136  0.1174 -1.6714
 6782SOL     OW27344   5.790   5.582   4.652  0.8712 -0.5569  0.1126
 6782SOL    HW127345   5.710   5.602   4.596  1.4187 -2.4751 -1.3957
 6782SOL    HW227346   5.773   5.499   4.705  1.4316 -0.3341  0.6387
 6783SOL     OW27347   1.984   4.407   2.920  0.0304  0.1716 -0.0668
 6783SOL    HW127348   2.079   4.439   2.923 -0.1556  0.7344 -0.0901
 6783SOL    HW227349   1.935   4.455   2.847  0.2052 -1.4468 -1.2939
 6784SOL     OW27350   6.748   0.366   1.896  0.3798  0.0483 -0.0368
 6784SOL    HW127351   6.835   0.415   1.908 -0.3265  1.5610 -0.8981
 6784SOL    HW227352   6.739   0.296   1.967  1.4612  1.1157  1.1883
 6785SOL     OW27353   2.020   3.634   6.199  0.2341 -0.3564  0.2370
 6785SOL    HW127354   2.022   3.625   6.298  2.0314 -0.5625  0.2059
 6785SOL    HW227355   2.054   3.725   6.174 -0.5064 -0.1921 -0.1813
 6786SOL     OW27356   3.466   5.877   5.156  0.1714  0.3429 -0.0541
 6786SOL    HW127357   3.380   5.871   5.105  0.9312  0.0096 -1.3176
 6786SOL    HW227358   3.533   5.928   5.103  1.4713 -1.3702 -0.0966
 6787SOL     OW27359   0.545   2.773   0.174  0.3774  0.2023 -0.5260
 6787SOL    HW127360   0.583   2.756   0.264  1.7898 -0.4633 -1.2368
 6787SOL    HW227361   0.598   2.845   0.128  0.2607 -0.1298 -1.1881
 6788SOL     OW27362   2.153   3.429   3.714 -0.2076 -0.8290 -0.4262
 6788SOL    HW127363   2.163   3.513   3.661 -0.6235 -0.4207  0.1303
 6788SOL    HW227364   2.100   3.448   3.797  1.0303 -1.3159  0.4882
 6789SOL     OW27365   4.484   0.966   2.998 -0.4442 -0.4001 -0.1408
 6789SOL    HW127366   4.451   1.015   3.080 -2.1718  1.2994 -1.8013
 6789SOL    HW227367   4.584   0.958   3.003 -0.5757 -1.0051  2.4838
 6790SOL     OW27368   6.539   1.347   7.032  0.2111  0.3660 -0.2286
 6790SOL    HW127369   6.542   1.312   6.938  2.8361 -0.0223 -0.0465
 6790SOL    HW227370   6.444   1.357   7.061 -0.6507  1.1021 -3.1497
 6791SOL     OW27371   4.815   6.604   0.124 -0.3160  0.4135 -0.5404
 6791SOL    HW127372   4.821   6.696   0.163  3.4445 -0.0392  0.0859
 6791SOL    HW227373   4.857   6.603   0.034  0.4010 -0.8364 -0.2057
 6792SOL     OW27374   6.193   1.559   1.781 -0.1422  0.1175  0.0931
 6792SOL    HW127375   6.167   1.650   1.750  4.2962  1.7383  0.8652
 6792SOL    HW227376   6.219   1.562   1.877  0.4975 -1.8920  0.0154
 6793SOL     OW27377   6.183   3.526   1.614 -0.2489 -0.4014  0.1913
 6793SOL    HW127378   6.105   3.544   1.554  0.3873  1.6352 -0.0771
 6793SOL    HW227379   6.268   3.530   1.560  0.0887 -1.9461  0.6002
 6794SOL     OW27380   1.420   6.911   0.598 -0.2958  0.7096  0.3121
 6794SOL    HW127381   1.488   6.913   0.525  0.5087  2.3916  1.0632
 6794SOL    HW227382   1.412   6.818   0.634  0.7921  0.2766 -0.5524
 6795SOL     OW27383   3.827   0.913   3.028  0.0589  0.1693 -0.5155
 6795SOL    HW127384   3.892   0.847   2.990  0.3109  1.1647 -1.8419
 6795SOL    HW227385   3.749   0.864   3.066 -0.9841 -0.8533 -3.7657
 6796SOL     OW27386   5.242   2.575   5.468 -0.6900  0.3206  0.1984
 6796SOL    HW127387   5.204   2.484   5.485  0.2724 -0.3111 -0.9029
 6796SOL    HW227388   5.298   2.603   5.546  0.5654 -0.8761 -0.2377
 6797SOL     OW27389   6.474   6.207   4.827  0.1154  0.4913 -0.3007
 6797SOL    HW127390   6.436   6.213   4.735 -0.1033  2.8079 -0.0772
 6797SOL    HW227391   6.568   6.174   4.821 -0.1441 -0.1056 -1.2852
 6798SOL     OW27392   6.468   0.292   1.186  0.0115  0.2068 -0.0556
 6798SOL    HW127393   6.519   0.366   1.142  0.1226  1.3968  2.0107
 6798SOL    HW227394   6.454   0.218   1.121  0.7045  1.6550 -1.8983
 6799SOL     OW27395   6.955   4.097   0.013  0.1560  0.3276 -0.7601
 6799SOL    HW127396   6.975   4.192   0.034  0.2888 -0.2105  1.6459
 6799SOL    HW227397   6.992   4.074  -0.077  1.3394  2.1546 -0.7546
 6800SOL     OW27398   5.134   1.321   1.396 -0.0274  0.1417  0.2286
 6800SOL    HW127399   5.210   1.317   1.461 -0.4487 -1.0797  0.6716
 6800SOL    HW227400   5.104   1.228   1.375  0.1668  0.5313 -1.8132
 6801SOL     OW27401   1.315   2.296   6.670 -0.1273 -0.3345 -0.1575
 6801SOL    HW127402   1.352   2.203   6.664  0.4204 -0.0868 -0.6585
 6801SOL    HW227403   1.275   2.310   6.760 -0.0913 -1.0128 -0.0309
 6802SOL     OW27404   1.465   6.603   0.698 -0.0297  0.0061 -0.3761
 6802SOL    HW127405   1.389   6.547   0.667  0.1403 -0.2688 -0.2935
 6802SOL    HW227406   1.500   6.568   0.786 -0.3417  0.6238 -0.0034
 6803SOL     OW27407   5.920   0.021   3.074  0.1117  0.4517  0.2867
 6803SOL    HW127408   5.870   0.009   3.160  1.5850  0.3790  1.1738
 6803SOL    HW227409   5.857   0.041   3.000 -1.3098 -0.9188  1.1137
 6804SOL     OW27410   2.245   2.048   0.299 -0.0895  0.1727  0.0022
 6804SOL    HW127411   2.251   1.976   0.229 -1.8020  1.1016 -1.1366
 6804SOL    HW227412   2.167   2.030   0.359 -1.0191  1.4980 -0.7953
 6805SOL     OW27413   1.763   3.489   3.017 -0.3565 -0.0612  0.4885
 6805SOL    HW127414   1.684   3.482   3.078 -0.2321 -0.8250  0.5576
 6805SOL    HW227415   1.802   3.399   3.001  1.0489  0.4192  1.1643
 6806SOL     OW27416   4.157   6.363   3.776 -0.3502 -0.2281 -0.5628
 6806SOL    HW127417   4.116   6.409   3.697  1.8415  0.1879 -1.4996
 6806SOL    HW227418   4.253   6.343   3.757  0.8452  1.8765  2.8264
 6807SOL     OW27419   2.876   2.469   7.227 -0.1530 -0.1227  0.2310
 6807SOL    HW127420   2.863   2.564   7.256 -0.7324  0.0008 -0.4288
 6807SOL    HW227421   2.925   2.467   7.140 -0.8729 -0.4038 -0.1673
 6808SOL     OW27422   4.280   3.245   3.341  0.4043  0.3203  0.1496
 6808SOL    HW127423   4.250   3.255   3.436 -0.8682 -1.1412 -0.0755
 6808SOL    HW227424   4.217   3.293   3.281  2.0940  2.6078  0.1224
 6809SOL     OW27425   4.246   1.836   2.195 -0.1064 -0.0478  0.5584
 6809SOL    HW127426   4.186   1.789   2.130  1.3234 -0.2079 -0.6848
 6809SOL    HW227427   4.340   1.806   2.181  0.4383  1.0855  1.6695
 6810SOL     OW27428   6.563   6.741   5.423  0.2408  0.3639  0.0012
 6810SOL    HW127429   6.657   6.766   5.399  0.1017  0.2749 -0.6457
 6810SOL    HW227430   6.503   6.821   5.413  0.3962  0.6472  1.2605
 6811SOL     OW27431   1.147   1.698   0.994  0.4066 -0.1128  0.0224
 6811SOL    HW127432   1.218   1.632   0.970 -0.4633 -0.9358 -0.3109
 6811SOL    HW227433   1.152   1.776   0.932 -0.7920 -1.4806 -1.8285
 6812SOL     OW27434   2.011   1.820   4.338  0.1652 -0.1999  0.0403
 6812SOL    HW127435   1.979   1.771   4.256 -0.2050  1.0405 -0.5583
 6812SOL    HW227436   2.007   1.758   4.417  1.2163 -1.6441 -1.0026
 6813SOL     OW27437   6.137   4.612   3.142 -0.3481  0.3091  0.6204
 6813SOL    HW127438   6.220   4.631   3.195 -0.7479  1.3814  0.8710
 6813SOL    HW227439   6.161   4.556   3.063  0.9421  2.1905 -0.3631
 6814SOL     OW27440   5.485   5.420   3.224 -0.3771  0.1548 -0.1258
 6814SOL    HW127441   5.521   5.338   3.181 -0.1401  0.6077 -0.8034
 6814SOL    HW227442   5.554   5.459   3.285 -0.4665 -0.1188  0.1464
 6815SOL     OW27443   2.423   6.521   4.652 -0.0246  0.1265  0.4149
 6815SOL    HW127444   2.324   6.506   4.653  0.0652 -0.7584 -1.8279
 6815SOL    HW227445   2.443   6.612   4.688 -1.5837  0.0400  1.5720
 6816SOL     OW27446   0.447   6.274   2.089 -0.1421  0.6558 -0.4411
 6816SOL    HW127447   0.388   6.245   2.164 -0.3277 -0.8230 -1.1278
 6816SOL    HW227448   0.394   6.273   2.004  0.2940  1.4904 -0.7251
 6817SOL     OW27449   5.884   0.209   1.355 -0.5911  0.1241  0.0897
 6817SOL    HW127450   5.939   0.242   1.432  0.4560 -2.2968  0.4302
 6817SOL    HW227451   5.787   0.210   1.379 -0.2517 -0.8075  1.5564
 6818SOL     OW27452   7.322   0.913   2.816  0.5264  0.6793  0.3440
 6818SOL    HW127453   7.294   0.935   2.909  1.5779 -1.1415  1.1181
 6818SOL    HW227454   7.303   0.817   2.797  0.8537  0.8873 -1.1201
 6819SOL     OW27455   3.369   5.239   6.209  0.2488 -0.3473 -0.0380
 6819SOL    HW127456   3.304   5.187   6.265  0.2490  0.8592  1.1196
 6819SOL    HW227457   3.339   5.335   6.204  1.3713 -0.0052 -0.3619
 6820SOL     OW27458   4.281   3.863   4.152  0.4133 -0.3157 -0.3002
 6820SOL    HW127459   4.191   3.829   4.180 -0.2065  0.2735 -1.5394
 6820SOL    HW227460   4.341   3.867   4.232 -0.8763 -0.0299  0.6732
 6821SOL     OW27461   1.180   3.579   5.633  0.8365 -0.2882 -0.3381
 6821SOL    HW127462   1.083   3.592   5.614  0.5038 -1.6764  0.3408
 6821SOL    HW227463   1.232   3.656   5.596 -0.5226  0.4900 -0.6637
 6822SOL     OW27464   3.664   4.013   2.767  0.2318 -0.2306  0.1620
 6822SOL    HW127465   3.605   3.952   2.713  0.8953  0.6736 -1.6292
 6822SOL    HW227466   3.622   4.028   2.856 -1.3845 -1.0242 -0.4279
 6823SOL     OW27467   2.739   0.212   2.127 -0.3483 -0.0602  0.2374
 6823SOL    HW127468   2.697   0.122   2.119 -0.1815 -0.2117  1.0499
 6823SOL    HW227469   2.826   0.205   2.174 -1.2253  0.7734  2.0343
 6824SOL     OW27470   5.057   3.015   5.305  0.1075  0.2540  0.3253
 6824SOL    HW127471   5.153   2.989   5.314  0.1789 -0.1484 -1.3732
 6824SOL    HW227472   5.000   2.933   5.305 -0.3287  0.5292  2.1011
 6825SOL     OW27473   1.479   5.131   6.643  0.0503 -0.4389 -0.4477
 6825SOL    HW127474   1.454   5.227   6.629  1.0784 -0.1653 -0.4444
 6825SOL    HW227475   1.439   5.075   6.570  1.3581  0.3199 -1.7728
 6826SOL     OW27476   1.790   3.068   4.196 -0.2125  0.5254 -0.6385
 6826SOL    HW127477   1.809   2.971   4.210  0.3539  0.8682  1.0655
 6826SOL    HW227478   1.848   3.103   4.122 -0.7753 -0.5279 -1.6023
 6827SOL     OW27479   0.202   5.528   0.222  0.4948 -0.1113 -0.0029
 6827SOL    HW127480   0.198   5.613   0.170 -0.1286  0.4164  0.8865
 6827SOL    HW227481   0.298   5.502   0.237  0.7096  0.9751  0.5789
 6828SOL     OW27482   0.330   6.629   5.835 -0.0081  0.0902 -0.4028
 6828SOL    HW127483   0.306   6.668   5.746 -0.1629  0.5636 -0.1506
 6828SOL    HW227484   0.429   6.632   5.848  0.1282 -1.0711 -1.0695
 6829SOL     OW27485   1.272   1.750   3.688  0.3722 -0.1660 -1.0144
 6829SOL    HW127486   1.206   1.816   3.725 -0.4678 -0.0842 -2.6204
 6829SOL    HW227487   1.313   1.699   3.763 -1.9883 -0.6603  0.0034
 6830SOL     OW27488   5.259   3.897   3.466  0.2034  0.4389 -0.1145
 6830SOL    HW127489   5.261   3.849   3.378 -0.1754  0.0844  0.0707
 6830SOL    HW227490   5.348   3.938   3.484  0.2321  0.6582 -0.7497
 6831SOL     OW27491   0.192   2.443   0.911  0.7972  0.1849 -0.1314
 6831SOL    HW127492   0.110   2.437   0.855 -0.6763 -1.3266  2.0863
 6831SOL    HW227493   0.259   2.376   0.880  1.5707  1.9574 -2.4472
 6832SOL     OW27494   2.646   6.395   0.728  0.4227 -0.3445  0.8857
 6832SOL    HW127495   2.740   6.400   0.761  1.3234 -0.3250 -1.6103
 6832SOL    HW227496   2.633   6.311   0.675 -0.0627  1.1447 -1.4256
 6833SOL     OW27497   1.288   3.406   5.831 -0.4649  0.4443 -0.0853
 6833SOL    HW127498   1.378   3.399   5.789 -0.3490 -1.5198  0.4443
 6833SOL    HW227499   1.224   3.448   5.767  0.4948  0.5887 -0.9547
 6834SOL     OW27500   5.061   4.812   1.550 -0.5998  0.5754 -0.1526
 6834SOL    HW127501   4.994   4.753   1.596 -1.0886  3.0541  2.4927
 6834SOL    HW227502   5.140   4.826   1.610 -0.5807  2.7286 -0.6239
 6835SOL     OW27503   0.677   1.165   0.177  0.8293  0.4887 -0.2360
 6835SOL    HW127504   0.658   1.102   0.102  2.4006 -0.4901  0.1740
 6835SOL    HW227505   0.745   1.125   0.238  0.9016  2.0449  0.7310
 6836SOL     OW27506   1.654   1.387   1.496 -0.9421  0.1391 -0.3245
 6836SOL    HW127507   1.736   1.374   1.552 -0.1341  0.3965 -1.4220
 6836SOL    HW227508   1.581   1.326   1.528 -0.0605 -0.6739  0.1601
 6837SOL     OW27509   7.270   2.290   5.144  0.4284  0.3389  0.2524
 6837SOL    HW127510   7.308   2.216   5.199  1.2886 -0.3914 -1.2937
 6837SOL    HW227511   7.343   2.336   5.093 -0.3697  0.8382 -0.4752
 6838SOL     OW27512   1.035   6.349   0.239  0.8000 -0.0198 -0.3562
 6838SOL    HW127513   1.110   6.416   0.244  2.1117 -1.4973  0.2844
 6838SOL    HW227514   1.066   6.270   0.185 -0.8441  0.0127 -1.3717
 6839SOL     OW27515   6.309   5.760   3.001  0.0147 -0.0116  0.2126
 6839SOL    HW127516   6.278   5.666   3.007  0.2517  0.0441  2.7368
 6839SOL    HW227517   6.369   5.771   2.922  0.3369 -2.0706  0.1645
 6840SOL     OW27518   5.945   1.980   4.681  0.2006 -0.7883  0.1366
 6840SOL    HW127519   6.026   1.929   4.653 -0.9060 -1.7147 -1.5145
 6840SOL    HW227520   5.971   2.052   4.745  2.0658 -2.1877  1.0178
 6841SOL     OW27521   4.065   1.950   2.642  0.3867 -0.8653 -0.1850
 6841SOL    HW127522   4.002   1.880   2.677  0.5744 -1.6357 -1.3545
 6841SOL    HW227523   4.026   2.041   2.659 -1.3940 -1.3472 -1.5161
 6842SOL     OW27524   1.064   0.919   4.332 -0.4591  0.1979 -0.3327
 6842SOL    HW127525   1.150   0.874   4.354  0.2839  1.6611 -0.1869
 6842SOL    HW227526   1.045   0.912   4.234 -0.9116 -1.3807 -0.1424
 6843SOL     OW27527   5.359   4.349   1.296 -0.2624 -0.4551 -0.8504
 6843SOL    HW127528   5.459   4.345   1.305 -0.1037  2.0718 -0.9658
 6843SOL    HW227529   5.333   4.347   1.200 -0.4105 -2.1177 -0.7935
 6844SOL     OW27530   4.132   3.828   5.792 -0.0196  0.2058  0.3920
 6844SOL    HW127531   4.154   3.885   5.871 -2.7018  2.0040 -0.0923
 6844SOL    HW227532   4.165   3.871   5.708 -1.5164  0.7709  0.0806
 6845SOL     OW27533   2.365   5.788   6.266  0.3561  0.3146  0.3968
 6845SOL    HW127534   2.437   5.857   6.275  0.6676 -0.1684  1.7829
 6845SOL    HW227535   2.407   5.697   6.263 -0.1546  0.0639  0.6773
 6846SOL     OW27536   3.392   5.220   3.348 -0.0488  0.2199  0.6638
 6846SOL    HW127537   3.327   5.286   3.386 -0.2513 -0.3931  1.4075
 6846SOL    HW227538   3.391   5.226   3.248 -0.3682  1.0470  0.7093
 6847SOL     OW27539   5.393   1.062   0.721 -0.2397 -0.9121 -0.5245
 6847SOL    HW127540   5.295   1.070   0.740  0.2031 -0.5212  1.8391
 6847SOL    HW227541   5.412   1.094   0.628 -1.9471  2.1502  0.0975
 6848SOL     OW27542   1.245   1.196   6.701  0.3640  0.1053 -0.2862
 6848SOL    HW127543   1.192   1.185   6.616 -1.4374  1.7101  0.5802
 6848SOL    HW227544   1.230   1.117   6.759  2.0608 -1.2781 -1.6659
 6849SOL     OW27545   6.606   1.664   1.735 -0.0390  0.0399  0.1056
 6849SOL    HW127546   6.700   1.637   1.755 -0.1436  0.2280  0.8612
 6849SOL    HW227547   6.584   1.641   1.640  1.0741  0.8460 -0.3568
 6850SOL     OW27548   0.484   5.428   4.034  0.1617  0.4412 -0.2959
 6850SOL    HW127549   0.435   5.471   3.959 -0.2658  0.2531 -0.1247
 6850SOL    HW227550   0.450   5.335   4.048 -1.2771  1.1950  1.5347
 6851SOL     OW27551   1.477   1.329   6.807  0.7238 -0.5030 -0.3766
 6851SOL    HW127552   1.533   1.254   6.841 -0.1899 -0.2431  1.8000
 6851SOL    HW227553   1.401   1.292   6.754  0.3245 -1.1328  0.6146
 6852SOL     OW27554   4.096   5.440   6.485  0.2446  0.1354  0.2005
 6852SOL    HW127555   4.166   5.369   6.484 -0.8755 -0.9929  0.0512
 6852SOL    HW227556   4.022   5.414   6.548 -0.3673  0.9748 -0.1555
 6853SOL     OW27557   2.360   6.701   5.294 -0.6799  0.2188  0.0063
 6853SOL    HW127558   2.442   6.679   5.348 -1.4274  1.2806  1.5967
 6853SOL    HW227559   2.289   6.633   5.312 -0.5269 -0.0754 -0.5146
 6854SOL     OW27560   0.858   0.999   2.341 -0.0500 -0.2859 -0.1493
 6854SOL    HW127561   0.908   0.953   2.413  1.7893 -1.1771 -1.9422
 6854SOL    HW227562   0.879   1.097   2.341 -0.0263 -0.2939  0.4843
 6855SOL     OW27563   2.087   7.093   2.753  0.0330  1.0248 -0.2827
 6855SOL    HW127564   2.131   7.165   2.699  1.2392  1.4339  1.1873
 6855SOL    HW227565   2.092   7.117   2.850 -2.4692  0.5129  0.0125
 6856SOL     OW27566   4.226   2.912   0.560 -0.3710  0.5331  0.0528
 6856SOL    HW127567   4.160   2.928   0.634  0.6535  1.7395  0.7335
 6856SOL    HW227568   4.279   2.996   0.545  0.5104 -0.2061 -0.9686
 6857SOL     OW27569   2.568   3.995   1.824  0.0104 -0.2117  0.4940
 6857SOL    HW127570   2.492   3.931   1.815 -0.5201  0.5033 -0.2835
 6857SOL    HW227571   2.533   4.089   1.814  1.2052  0.0581 -1.2821
 6858SOL     OW27572   3.027   5.815   6.438  0.3559 -0.2514 -0.0842
 6858SOL    HW127573   3.125   5.806   6.458  0.1692 -0.0494  0.9457
 6858SOL    HW227574   2.987   5.723   6.429 -0.1928 -0.4506  3.7155
 6859SOL     OW27575   5.055   2.621   1.467 -0.2936 -0.3930 -0.2948
 6859SOL    HW127576   5.059   2.521   1.471 -1.5814 -0.4619 -0.6860
 6859SOL    HW227577   5.019   2.650   1.379 -2.8428  0.3209  0.9308
 6860SOL     OW27578   1.572   1.146   1.625  0.1610  0.0420 -0.7687
 6860SOL    HW127579   1.619   1.186   1.704  2.1487 -1.2576 -1.2786
 6860SOL    HW227580   1.559   1.048   1.639 -0.2530 -0.0439 -1.6900
 6861SOL     OW27581   3.212   0.243   0.915  0.4613 -0.6602 -0.2149
 6861SOL    HW127582   3.243   0.303   0.842 -1.3752 -0.7939 -1.1330
 6861SOL    HW227583   3.201   0.150   0.880 -1.0089 -0.6003  0.0654
 6862SOL     OW27584   4.493   2.885   6.086  0.3448  0.4032 -0.1619
 6862SOL    HW127585   4.499   2.956   6.157 -0.7037  0.6834 -0.3409
 6862SOL    HW227586   4.547   2.913   6.006 -0.3489  1.1725 -0.3690
 6863SOL     OW27587   3.847   3.736   5.219 -0.4149 -0.5307 -0.0608
 6863SOL    HW127588   3.774   3.670   5.204  0.3982 -1.2354 -0.9470
 6863SOL    HW227589   3.878   3.774   5.131  0.0672 -0.0009  0.3262
 6864SOL     OW27590   1.702   4.635   2.424 -0.2637 -0.3636  0.1622
 6864SOL    HW127591   1.761   4.701   2.471 -0.6395  0.4832 -0.5604
 6864SOL    HW227592   1.726   4.542   2.454  0.4086  0.0800  1.0125
 6865SOL     OW27593   2.757   0.413   1.706  0.0833 -0.3152 -0.0595
 6865SOL    HW127594   2.842   0.364   1.688  0.7860  0.6339  0.6091
 6865SOL    HW227595   2.757   0.499   1.655  0.0975  0.2786  0.9192
 6866SOL     OW27596   0.648   0.399   4.965  1.0286 -0.1650 -0.6183
 6866SOL    HW127597   0.653   0.499   4.964  1.7481 -0.2002 -1.0447
 6866SOL    HW227598   0.557   0.370   4.936 -0.3277  0.4297  2.8519
 6867SOL     OW27599   4.458   4.944   2.292 -0.0811 -0.0555  0.0042
 6867SOL    HW127600   4.489   4.883   2.365 -0.4959  0.3166  0.4883
 6867SOL    HW227601   4.538   4.984   2.246  0.2177 -1.7553 -1.0010
 6868SOL     OW27602   5.004   0.708   6.789  0.5504  0.1040  0.1589
 6868SOL    HW127603   5.085   0.658   6.821  1.6419  1.3691 -0.6005
 6868SOL    HW227604   4.977   0.673   6.700  1.5676  1.1324 -0.5647
 6869SOL     OW27605   1.121   2.350   7.240  0.2544 -0.7317 -0.0810
 6869SOL    HW127606   1.108   2.423   7.308  1.3685 -1.2605  0.7265
 6869SOL    HW227607   1.066   2.370   7.159  2.8261  2.6050 -1.1465
 6870SOL     OW27608   5.959   0.017   0.906  0.1502 -0.2912  0.2888
 6870SOL    HW127609   5.972   0.080   0.983  0.3806  0.0220 -0.0046
 6870SOL    HW227610   5.935  -0.073   0.941  0.0069 -0.0900  0.7209
 6871SOL     OW27611   6.473   4.816   1.136  0.0950 -0.0580  0.1177
 6871SOL    HW127612   6.453   4.754   1.060  0.6985  0.9840 -0.9073
 6871SOL    HW227613   6.392   4.825   1.194 -1.2398  1.1361 -1.8586
 6872SOL     OW27614   3.396   1.558   2.727 -0.0980  0.2668 -0.1048
 6872SOL    HW127615   3.303   1.529   2.752  0.3000 -1.4522 -0.4992
 6872SOL    HW227616   3.445   1.480   2.687  2.3958  0.4103  2.5228
 6873SOL     OW27617   7.109   2.777   7.101  0.2737 -0.1474  0.4408
 6873SOL    HW127618   7.069   2.699   7.052 -3.3849  2.4428 -0.9487
 6873SOL    HW227619   7.195   2.802   7.057 -0.3008 -1.1923 -1.3742
 6874SOL     OW27620   7.346   7.158   0.808 -0.2152  0.4678  0.0556
 6874SOL    HW127621   7.332   7.144   0.906  0.1052  0.5713  0.1188
 6874SOL    HW227622   7.364   7.069   0.765  0.3982  0.5092  0.2195
 6875SOL     OW27623   3.777   5.354   2.035  0.0722  0.1081 -0.0374
 6875SOL    HW127624   3.681   5.327   2.036  0.3771 -1.0367 -0.8007
 6875SOL    HW227625   3.834   5.273   2.025  1.0936  0.8536 -0.3276
 6876SOL     OW27626   0.371   3.921   6.066 -0.1935 -0.5060 -0.4099
 6876SOL    HW127627   0.298   3.882   6.011  1.0960 -1.2826 -1.6055
 6876SOL    HW227628   0.399   3.856   6.137 -0.1206 -0.5326 -0.4630
 6877SOL     OW27629   0.217   6.806   1.390 -0.0795 -0.2458  0.2742
 6877SOL    HW127630   0.301   6.778   1.344 -0.6370 -0.7581 -0.4469
 6877SOL    HW227631   0.204   6.753   1.474 -0.5438 -1.3468 -0.4916
 6878SOL     OW27632   2.134   0.397   3.062  0.2847  0.0182 -0.4333
 6878SOL    HW127633   2.119   0.387   3.160  2.0872 -0.2190 -0.1597
 6878SOL    HW227634   2.126   0.308   3.018 -1.4270  0.2593 -0.6616
 6879SOL     OW27635   3.402   5.498   1.147 -0.4133 -0.2722 -0.0829
 6879SOL    HW127636   3.487   5.529   1.190  0.3941 -0.3814 -1.5652
 6879SOL    HW227637   3.378   5.408   1.182  0.1595 -0.3009  0.2386
 6880SOL     OW27638   3.767   6.070   1.883 -0.0750  0.3437 -0.4117
 6880SOL    HW127639   3.704   6.045   1.809 -0.0338  2.0605 -1.0702
 6880SOL    HW227640   3.714   6.096   1.964 -0.1843  0.6857 -0.5919
 6881SOL     OW27641   0.718   5.595   6.923  0.1397  0.0199 -0.2075
 6881SOL    HW127642   0.698   5.624   6.830  1.0527 -2.2524 -1.1433
 6881SOL    HW227643   0.790   5.653   6.962  1.0574 -0.1659 -1.5922
 6882SOL     OW27644   6.082   2.493   2.191 -0.7283  0.1554 -0.2218
 6882SOL    HW127645   6.138   2.567   2.153 -0.1841 -0.9807 -1.6977
 6882SOL    HW227646   6.038   2.524   2.275  0.8787  1.5852  0.1159
 6883SOL     OW27647   6.583   0.466   4.970 -1.0031 -0.5753 -0.2669
 6883SOL    HW127648   6.605   0.460   4.873 -2.4952  0.3684 -0.6823
 6883SOL    HW227649   6.499   0.414   4.988 -0.6682 -0.8397  0.5349
 6884SOL     OW27650   3.819   0.352   0.290  0.0958 -0.0430 -0.2042
 6884SOL    HW127651   3.864   0.308   0.213 -0.4792 -0.7074 -0.1665
 6884SOL    HW227652   3.790   0.282   0.355 -2.1816  0.2527 -0.8731
 6885SOL     OW27653   6.839   5.644   6.726  0.8258 -0.1370  0.0025
 6885SOL    HW127654   6.847   5.710   6.800  2.0815 -1.8559  1.4404
 6885SOL    HW227655   6.904   5.666   6.654  1.0518  0.3405  0.3525
 6886SOL     OW27656   6.134   2.162   1.479 -0.1505 -0.3999  1.0866
 6886SOL    HW127657   6.068   2.202   1.415 -0.6697  1.4636  2.7722
 6886SOL    HW227658   6.227   2.180   1.446 -0.4198 -1.4156 -0.3063
 6887SOL     OW27659   3.720   0.473   0.601  0.0481 -0.1058  0.7398
 6887SOL    HW127660   3.647   0.431   0.547  0.6553 -1.0868  0.6849
 6887SOL    HW227661   3.707   0.572   0.601 -0.1722 -0.1109 -0.9058
 6888SOL     OW27662   0.695   3.466   7.254  0.5772  0.0080 -0.1724
 6888SOL    HW127663   0.677   3.375   7.217  2.1450 -0.3134 -0.1716
 6888SOL    HW227664   0.706   3.460   7.353 -0.7103  0.4267  0.0076
 6889SOL     OW27665   5.839   7.141   5.049 -0.8513  0.2823 -0.3732
 6889SOL    HW127666   5.817   7.236   5.071  1.4440  0.6692  0.3547
 6889SOL    HW227667   5.773   7.106   4.982 -3.5609  1.3815  1.6576
 6890SOL     OW27668   6.398   3.707   0.046 -0.0132 -0.0436  0.1439
 6890SOL    HW127669   6.308   3.665   0.063  0.1948 -0.2922  0.6196
 6890SOL    HW227670   6.454   3.644  -0.008 -0.8467  0.9432 -1.9252
 6891SOL     OW27671   6.322   3.490   7.050 -0.1909  0.1861 -0.4614
 6891SOL    HW127672   6.240   3.546   7.058 -0.2357 -0.1123  1.4800
 6891SOL    HW227673   6.306   3.416   6.984 -1.5806 -0.0488  0.1352
 6892SOL     OW27674   5.790   5.780   4.168  0.2939  0.2349  0.0422
 6892SOL    HW127675   5.742   5.770   4.081  1.2501  0.0595 -0.4637
 6892SOL    HW227676   5.805   5.689   4.208 -0.0706  0.3093  0.3582
 6893SOL     OW27677   6.345   7.335   1.619 -0.0801  0.3721  0.0089
 6893SOL    HW127678   6.325   7.316   1.523  1.4772 -0.9973 -0.0634
 6893SOL    HW227679   6.330   7.433   1.637  1.1094  0.9673 -2.0269
 6894SOL     OW27680   3.421   5.316   0.626  0.8844  0.9359 -0.1909
 6894SOL    HW127681   3.392   5.336   0.719 -1.0371  3.8352 -1.3404
 6894SOL    HW227682   3.517   5.287   0.627  0.6478  0.0683  2.7401
 6895SOL     OW27683   1.989   1.084   4.364 -0.1175  0.0280 -0.3204
 6895SOL    HW127684   2.015   1.022   4.290 -0.7053 -0.7165  0.1007
 6895SOL    HW227685   1.937   1.160   4.326  1.5198  0.8547 -0.9884
 6896SOL     OW27686   6.796   5.566   3.516 -0.1194 -0.0778  0.2392
 6896SOL    HW127687   6.798   5.469   3.490  1.8001 -0.5541  1.9800
 6896SOL    HW227688   6.850   5.619   3.451  0.5620 -0.5003  0.4584
 6897SOL     OW27689   4.325   3.081   5.159 -0.3796  0.2465  0.1760
 6897SOL    HW127690   4.236   3.111   5.193  0.2485  0.9557  1.2421
 6897SOL    HW227691   4.316   2.991   5.117 -1.2387 -0.6391  2.1700
 6898SOL     OW27692   5.249   5.186   5.249 -0.2251 -0.0065  0.3732
 6898SOL    HW127693   5.301   5.236   5.318  0.4202 -1.7733  1.2139
 6898SOL    HW227694   5.154   5.177   5.278 -0.1336 -0.0506  0.6622
 6899SOL     OW27695   2.734   3.136   7.304  0.3419 -0.0499 -0.1512
 6899SOL    HW127696   2.790   3.205   7.257  1.0995  0.3602  1.3081
 6899SOL    HW227697   2.710   3.170   7.395 -0.0933 -1.3252  0.2083
 6900SOL     OW27698   5.162   0.385   3.605  0.1563 -0.3342  0.0069
 6900SOL    HW127699   5.073   0.353   3.572 -0.1594 -0.8477  1.3217
 6900SOL    HW227700   5.213   0.307   3.643  0.5680  0.2138  0.5813
 6901SOL     OW27701   6.718   4.164   4.610  0.4096 -0.5109  0.6601
 6901SOL    HW127702   6.804   4.131   4.569  0.4907  0.9370 -0.3810
 6901SOL    HW227703   6.711   4.263   4.597 -1.2437 -0.5591  1.0824
 6902SOL     OW27704   3.540   2.171   0.841  0.4018 -0.1167 -0.2874
 6902SOL    HW127705   3.628   2.130   0.867 -0.8024 -1.9761  0.9967
 6902SOL    HW227706   3.519   2.246   0.904  1.2794  0.6510 -0.8927
 6903SOL     OW27707   3.160   3.710   0.374 -0.3050 -0.3545 -0.2736
 6903SOL    HW127708   3.241   3.768   0.384 -1.2908  0.9416  0.3351
 6903SOL    HW227709   3.097   3.751   0.307 -1.1852 -0.4956  0.4537
 6904SOL     OW27710   1.152   4.302   2.308 -0.1945  0.3800  0.2799
 6904SOL    HW127711   1.251   4.297   2.293 -0.3384 -0.8913 -0.3486
 6904SOL    HW227712   1.104   4.285   2.221 -0.9646  1.3822  0.4993
 6905SOL     OW27713   2.357   4.002   0.959  0.4435  0.1355 -1.0363
 6905SOL    HW127714   2.310   4.076   0.911  0.8654 -0.1639 -1.9202
 6905SOL    HW227715   2.306   3.917   0.949 -1.2551  0.7498  1.9067
 6906SOL     OW27716   2.993   3.630   6.561 -0.3788  0.4146 -0.1839
 6906SOL    HW127717   2.928   3.584   6.501  0.4946 -0.4104 -0.5111
 6906SOL    HW227718   3.070   3.664   6.507 -0.7739  1.8245  0.1259
 6907SOL     OW27719   5.098   6.946   3.565 -0.3225 -0.5206 -0.5931
 6907SOL    HW127720   4.998   6.946   3.560 -0.3317 -1.5962 -0.4989
 6907SOL    HW227721   5.128   7.013   3.634 -1.0367 -1.2361  0.4192
 6908SOL     OW27722   6.760   0.698   1.703  0.1236  0.1564  0.7640
 6908SOL    HW127723   6.693   0.761   1.742  0.8000  2.1671 -1.1967
 6908SOL    HW227724   6.726   0.661   1.617  0.3240 -1.0616  1.2036
 6909SOL     OW27725   2.807   2.392   3.256 -0.2415  0.1015  0.4319
 6909SOL    HW127726   2.812   2.301   3.215 -1.1894  0.4079 -0.4005
 6909SOL    HW227727   2.713   2.425   3.252  0.1198  1.1767  0.5997
 6910SOL     OW27728   2.992   5.227   1.625 -0.1304  0.5793 -0.0329
 6910SOL    HW127729   2.937   5.144   1.616  1.6230 -0.9574  2.7429
 6910SOL    HW227730   3.037   5.247   1.538  0.3601 -2.0690 -0.4446
 6911SOL     OW27731   2.088   3.626   6.449  0.3207 -0.0140  0.2120
 6911SOL    HW127732   2.184   3.651   6.452  0.2054  0.2745  1.9892
 6911SOL    HW227733   2.034   3.691   6.503 -0.6837 -0.9814  0.3948
 6912SOL     OW27734   3.964   1.315   5.026 -0.1486  0.3635 -0.0653
 6912SOL    HW127735   4.046   1.260   5.014 -0.5325 -0.5492  1.2725
 6912SOL    HW227736   3.945   1.325   5.124 -1.1350  1.3067 -0.3390
 6913SOL     OW27737   3.897   1.452   4.623 -0.0085  0.4476 -0.1166
 6913SOL    HW127738   3.949   1.423   4.542 -1.6296 -1.5955 -0.4801
 6913SOL    HW227739   3.826   1.517   4.595 -1.2014 -1.0059 -0.5209
 6914SOL     OW27740   6.439   3.362   5.843  0.2348 -0.3170  0.1628
 6914SOL    HW127741   6.409   3.409   5.760  1.0923  0.1395  0.0968
 6914SOL    HW227742   6.516   3.303   5.821 -0.1506 -0.9236  0.4550
 6915SOL     OW27743   4.873   5.014   2.710  0.4597  0.4551 -0.3135
 6915SOL    HW127744   4.794   5.006   2.649 -0.2438 -0.1706  0.6797
 6915SOL    HW227745   4.953   4.973   2.666 -0.4824 -1.7169 -0.0468
 6916SOL     OW27746   3.250   3.305   4.462 -0.3380  0.2304 -0.2962
 6916SOL    HW127747   3.345   3.327   4.483 -0.5937  0.5939  0.4921
 6916SOL    HW227748   3.198   3.389   4.448 -0.5542  0.0347 -0.6813
 6917SOL     OW27749   0.264   1.499   0.873  0.1402 -0.2369 -0.9341
 6917SOL    HW127750   0.355   1.525   0.842  0.3124  1.1515  0.6484
 6917SOL    HW227751   0.198   1.569   0.844 -0.2938 -0.8373 -1.3989
 6918SOL     OW27752   7.036   3.882   5.738 -0.4281  0.5084 -0.0012
 6918SOL    HW127753   6.987   3.951   5.791  0.6867  1.4480 -0.1785
 6918SOL    HW227754   7.124   3.862   5.782 -0.5729 -0.5283 -0.1580
 6919SOL     OW27755   6.854   2.977   7.005  0.3393  0.4499  0.2942
 6919SOL    HW127756   6.925   2.989   6.935  0.3407 -0.1741  0.1862
 6919SOL    HW227757   6.785   2.913   6.972  0.3511  0.1359  0.8715
 6920SOL     OW27758   6.780   0.217   6.493  0.0706  0.0793 -0.5442
 6920SOL    HW127759   6.838   0.207   6.412 -0.8082 -2.1201 -0.9289
 6920SOL    HW227760   6.790   0.136   6.551 -2.7535 -0.4385 -0.7082
 6921SOL     OW27761   2.697   6.188   7.315  0.1943  0.2438 -0.1869
 6921SOL    HW127762   2.755   6.263   7.281  1.3241 -0.4469  0.2108
 6921SOL    HW227763   2.681   6.200   7.413  1.1596 -0.5429  0.0727
 6922SOL     OW27764   4.696   4.003   0.709  0.5476 -0.0866 -0.0522
 6922SOL    HW127765   4.791   3.980   0.729  0.1776 -2.4063 -0.8049
 6922SOL    HW227766   4.653   4.043   0.790  2.0380  0.6212  0.4111
 6923SOL     OW27767   7.176   4.339   1.302  0.1923 -0.3224  0.1846
 6923SOL    HW127768   7.098   4.318   1.361  1.0370 -2.4217  0.5988
 6923SOL    HW227769   7.190   4.264   1.237 -1.1470  2.2650 -3.2138
 6924SOL     OW27770   3.310   5.203   2.672 -0.0933 -0.3050  0.4318
 6924SOL    HW127771   3.324   5.106   2.692 -0.0537 -0.0205  1.7871
 6924SOL    HW227772   3.231   5.237   2.723 -0.7726  0.1228 -0.8675
 6925SOL     OW27773   2.597   6.393   4.476 -0.2631 -0.0120  0.0725
 6925SOL    HW127774   2.533   6.453   4.525 -1.8786  0.0558 -2.0585
 6925SOL    HW227775   2.565   6.299   4.482 -0.7247  0.0544 -1.2287
 6926SOL     OW27776   6.060   2.187   4.835 -0.3070 -0.9238  0.0952
 6926SOL    HW127777   6.006   2.247   4.894 -0.9556 -0.8585 -0.5510
 6926SOL    HW227778   6.149   2.169   4.878  0.3950  1.4749 -0.2470
 6927SOL     OW27779   7.341   3.980   0.689 -0.4944 -0.5525 -0.1657
 6927SOL    HW127780   7.261   4.039   0.685 -1.5757 -2.0450 -1.7830
 6927SOL    HW227781   7.390   3.984   0.601  1.7246  0.9843  1.0742
 6928SOL     OW27782   3.737   4.927   1.944 -0.2842  0.4996  0.3845
 6928SOL    HW127783   3.806   4.988   1.983 -0.2164  0.4689  0.3142
 6928SOL    HW227784   3.782   4.861   1.884 -0.3536  0.3518  0.4983
 6929SOL     OW27785   4.503   6.964   0.643  0.5351  0.6804  0.1997
 6929SOL    HW127786   4.572   6.994   0.578  1.2245 -0.0253  0.6030
 6929SOL    HW227787   4.497   7.031   0.718 -0.2271  1.4676 -0.5462
 6930SOL     OW27788   1.884   0.431   6.809 -0.1079 -0.1815 -0.1400
 6930SOL    HW127789   1.906   0.457   6.903 -0.1240  2.8883 -0.9307
 6930SOL    HW227790   1.798   0.380   6.807 -0.5370  0.4641  1.4129
 6931SOL     OW27791   3.029   4.393   3.657  0.4327  0.2488  0.1226
 6931SOL    HW127792   3.007   4.296   3.655 -0.0175  0.3301  0.9539
 6931SOL    HW227793   3.090   4.415   3.581  0.2288 -0.6060 -0.2938
 6932SOL     OW27794   6.746   3.330   1.258 -0.2876  0.1312  0.1126
 6932SOL    HW127795   6.707   3.283   1.179 -0.3948  0.7114 -0.1831
 6932SOL    HW227796   6.723   3.281   1.342 -2.5977  1.0703  0.0560
 6933SOL     OW27797   5.500   0.438   2.388 -0.2531  0.3494 -0.3651
 6933SOL    HW127798   5.579   0.388   2.422 -0.7442  0.0019  0.2841
 6933SOL    HW227799   5.425   0.431   2.454 -0.7719  0.8080 -0.8959
 6934SOL     OW27800   0.261   5.768   0.112  0.1189 -0.2339  0.3036
 6934SOL    HW127801   0.334   5.742   0.049  1.6572  1.5007  1.2922
 6934SOL    HW227802   0.207   5.842   0.073  1.2514  1.0384  1.0898
 6935SOL     OW27803   1.554   6.497   0.947 -0.2501  0.1127  0.3980
 6935SOL    HW127804   1.519   6.419   1.000 -1.6138 -0.2148 -0.9239
 6935SOL    HW227805   1.653   6.490   0.939 -0.1880 -0.6086  1.6817
 6936SOL     OW27806   2.744   3.385   4.477 -0.3660  0.4085 -0.0077
 6936SOL    HW127807   2.806   3.414   4.404  2.0250  1.0828  2.2351
 6936SOL    HW227808   2.735   3.286   4.475 -1.0730  0.4877 -1.7879
 6937SOL     OW27809   4.898   3.425   1.756  0.3249  0.0819  0.2137
 6937SOL    HW127810   4.915   3.515   1.715 -0.8255  0.5365  0.7053
 6937SOL    HW227811   4.926   3.353   1.693  0.7060  0.7884 -0.4244
 6938SOL     OW27812   5.855   6.406   2.554 -0.1792  0.6546 -0.7521
 6938SOL    HW127813   5.878   6.500   2.578  0.9742  0.1277  0.2734
 6938SOL    HW227814   5.758   6.401   2.528 -0.5889  1.8788  0.4692
 6939SOL     OW27815   7.349   3.963   3.889  0.8332  0.1202 -0.7401
 6939SOL    HW127816   7.399   4.050   3.890  1.0221  0.0257 -1.3198
 6939SOL    HW227817   7.300   3.954   3.802 -1.2968  0.8245  0.3660
 6940SOL     OW27818   6.219   0.210   1.736 -0.3396 -0.5532 -0.4999
 6940SOL    HW127819   6.300   0.265   1.754 -0.4259 -0.0061 -1.7274
 6940SOL    HW227820   6.152   0.222   1.809  1.5857 -2.7799  1.7357
 6941SOL     OW27821   6.355   3.699   1.048 -0.2543  0.4998 -0.3965
 6941SOL    HW127822   6.403   3.612   1.040 -1.8450 -0.6589  2.3538
 6941SOL    HW227823   6.415   3.766   1.091  0.6165  0.5091 -1.5938
 6942SOL     OW27824   1.707   5.440   0.267  0.1025  0.0652 -0.4273
 6942SOL    HW127825   1.629   5.479   0.217  1.3563  0.9544 -1.7122
 6942SOL    HW227826   1.745   5.510   0.328 -2.2798 -1.4063  2.9024
 6943SOL     OW27827   1.153   1.924   1.782  0.8889 -0.1840  0.6582
 6943SOL    HW127828   1.190   1.908   1.690  0.9567  0.4174  0.5795
 6943SOL    HW227829   1.212   1.989   1.830 -0.4271  1.3222  0.2821
 6944SOL     OW27830   3.325   0.018   1.402  0.6413  0.2685 -0.5261
 6944SOL    HW127831   3.402  -0.042   1.381  0.1121 -0.1064 -1.4380
 6944SOL    HW227832   3.290   0.057   1.317  0.4428  1.1984 -0.0150
 6945SOL     OW27833   5.786   0.535   1.089  0.0909  0.4715 -0.1721
 6945SOL    HW127834   5.818   0.547   0.995  0.3683  0.5664 -0.0670
 6945SOL    HW227835   5.698   0.582   1.101  1.0974  2.3008  0.1911
 6946SOL     OW27836   3.414   7.154   5.774 -0.4714  0.2444  0.1681
 6946SOL    HW127837   3.407   7.090   5.851 -2.7416 -0.8304 -0.8938
 6946SOL    HW227838   3.325   7.195   5.757  0.3191  1.4877 -1.0402
 6947SOL     OW27839   3.768   1.669   7.078 -0.1229 -0.5716  0.4282
 6947SOL    HW127840   3.768   1.570   7.061 -0.2780 -0.5673  0.4048
 6947SOL    HW227841   3.677   1.706   7.059  0.3054 -0.1941 -0.9185
 6948SOL     OW27842   4.503   1.215   3.888 -0.8327  0.4421  0.2276
 6948SOL    HW127843   4.534   1.193   3.981 -1.6215 -0.4248  0.2913
 6948SOL    HW227844   4.574   1.191   3.822  0.1801  2.1154  0.6979
 6949SOL     OW27845   1.416   5.058   1.710  0.0467 -0.2999 -0.9713
 6949SOL    HW127846   1.484   5.009   1.763  0.0569  2.0628  1.2630
 6949SOL    HW227847   1.330   5.062   1.761 -0.0682  1.6522 -1.2864
 6950SOL     OW27848   4.963   6.596   1.962  0.7668  0.2908 -0.5167
 6950SOL    HW127849   5.056   6.558   1.958  1.3262  1.4215  1.3395
 6950SOL    HW227850   4.940   6.620   2.056 -0.9025  1.2967 -1.1510
 6951SOL     OW27851   0.952   2.730   5.793  0.1547  0.6802  0.0759
 6951SOL    HW127852   0.946   2.824   5.826 -0.2660  0.8037 -0.3366
 6951SOL    HW227853   0.905   2.723   5.705  0.8373  0.2493 -0.2570
 6952SOL     OW27854   1.695   0.874   6.070  0.4704  0.6905 -0.6455
 6952SOL    HW127855   1.783   0.870   6.118  1.0705 -0.6336 -1.8269
 6952SOL    HW227856   1.697   0.947   6.002  0.2524  1.3940  0.0978
 6953SOL     OW27857   0.926   0.378   3.209 -0.4503  0.0942  0.4351
 6953SOL    HW127858   0.857   0.437   3.169 -1.2839 -0.4475  1.0597
 6953SOL    HW227859   0.882   0.299   3.252  0.5179  0.0141  1.3016
 6954SOL     OW27860   7.154   5.505   4.358 -0.3234 -0.5808  0.0346
 6954SOL    HW127861   7.181   5.587   4.408  1.2174 -1.4133  0.5992
 6954SOL    HW227862   7.128   5.433   4.422 -0.6415 -0.8903 -0.4332
 6955SOL     OW27863   0.110   1.995   2.642 -0.3290 -0.4448  0.0553
 6955SOL    HW127864   0.091   2.088   2.610 -0.3093  0.2122  1.8690
 6955SOL    HW227865   0.109   1.994   2.742 -0.1938 -2.3784  0.0506
 6956SOL     OW27866   3.711   4.134   0.472  0.1826 -0.2603  0.2181
 6956SOL    HW127867   3.690   4.043   0.435 -0.4137 -0.2493  0.5227
 6956SOL    HW227868   3.627   4.187   0.479  0.4814  0.1917  0.3774
 6957SOL     OW27869   3.926   5.117   2.085 -0.0741 -0.2424  0.2122
 6957SOL    HW127870   4.014   5.149   2.050  0.6325 -0.2847  1.9540
 6957SOL    HW227871   3.934   5.092   2.181 -1.7377 -1.2630  0.1161
 6958SOL     OW27872   1.061   6.803   3.933  0.0829  0.0976  0.0283
 6958SOL    HW127873   1.097   6.896   3.937 -1.1108  0.6908 -2.3290
 6958SOL    HW227874   1.137   6.737   3.937  1.1173  1.2242 -0.8703
 6959SOL     OW27875   2.593   4.507   0.059  0.3506 -0.2824 -0.1220
 6959SOL    HW127876   2.524   4.492  -0.011  0.3942 -0.9109 -0.0364
 6959SOL    HW227877   2.656   4.580   0.030 -0.6514  0.6525  0.0360
 6960SOL     OW27878   7.036   1.021   5.032  0.3908 -0.0320 -0.3324
 6960SOL    HW127879   7.116   0.991   4.981  1.0810  1.3047 -0.0494
 6960SOL    HW227880   7.062   1.092   5.097 -1.2121  1.2655 -1.0713
 6961SOL     OW27881   7.264   1.384   3.498  0.5643  0.2011  0.5204
 6961SOL    HW127882   7.221   1.303   3.459  3.0867 -1.2803  0.6832
 6961SOL    HW227883   7.274   1.371   3.597  1.3341  0.5101  0.4896
 6962SOL     OW27884   5.190   4.643   2.721 -0.3469 -0.0677 -0.5925
 6962SOL    HW127885   5.112   4.642   2.783 -1.2859  0.4246 -1.7473
 6962SOL    HW227886   5.234   4.553   2.721 -0.8279 -0.3070  0.1775
 6963SOL     OW27887   1.511   2.600   3.180 -0.2005  0.2309 -0.2394
 6963SOL    HW127888   1.528   2.502   3.185  1.5538  0.4507 -1.4329
 6963SOL    HW227889   1.413   2.616   3.171 -0.4812 -1.4332 -0.3209
 6964SOL     OW27890   5.331   5.585   5.112  0.0315  0.2958  0.5264
 6964SOL    HW127891   5.326   5.585   5.212 -0.6521 -0.0957  0.4966
 6964SOL    HW227892   5.264   5.520   5.075  0.9086 -0.2468 -0.1490
 6965SOL     OW27893   5.727   2.384   3.871 -0.0621 -0.4267  0.1165
 6965SOL    HW127894   5.715   2.360   3.775 -1.2299  2.5868 -0.5539
 6965SOL    HW227895   5.640   2.372   3.919  0.1837 -0.6626  0.5048
 6966SOL     OW27896   0.766   4.065   6.173 -0.1950  0.1422  0.4008
 6966SOL    HW127897   0.754   4.056   6.074 -1.4220 -1.1674  0.6603
 6966SOL    HW227898   0.685   4.031   6.220  0.6597  0.1163  1.8825
 6967SOL     OW27899   6.547   7.025   2.962 -0.0858 -0.1773  0.4736
 6967SOL    HW127900   6.542   6.982   3.052  1.4090 -2.2348 -0.3867
 6967SOL    HW227901   6.594   7.113   2.970 -0.5835 -0.0199  1.8018
 6968SOL     OW27902   6.541   3.802   2.777 -0.4125 -0.1009 -0.5440
 6968SOL    HW127903   6.463   3.817   2.717 -1.3960  0.5826  0.8582
 6968SOL    HW227904   6.520   3.839   2.868  0.6913 -1.8786  0.4628
 6969SOL     OW27905   3.508   1.905   5.059  0.2704 -0.5326 -0.1275
 6969SOL    HW127906   3.479   1.998   5.081  0.6762 -0.4345 -0.0078
 6969SOL    HW227907   3.541   1.860   5.142 -0.1708 -0.8740 -0.1346
 6970SOL     OW27908   4.931   0.809   0.762  0.1286 -0.4445  0.0748
 6970SOL    HW127909   4.993   0.754   0.705 -0.8560 -0.2637 -1.1924
 6970SOL    HW227910   4.984   0.876   0.813  1.1454 -1.3215  0.2003
 6971SOL     OW27911   4.412   2.157   4.325 -0.2776  0.0219 -0.0964
 6971SOL    HW127912   4.430   2.058   4.320  1.2323  0.2550  0.7503
 6971SOL    HW227913   4.430   2.190   4.418 -0.3176  1.1910 -0.4965
 6972SOL     OW27914   1.446   6.199   5.478 -0.2164 -0.1935 -0.2551
 6972SOL    HW127915   1.500   6.274   5.439 -0.8599  0.2857 -0.2324
 6972SOL    HW227916   1.475   6.113   5.437  1.7421 -0.1497  0.9915
 6973SOL     OW27917   3.563   4.547   6.848 -0.5104 -0.2604 -0.1267
 6973SOL    HW127918   3.579   4.504   6.758 -0.6979  0.8477 -0.6917
 6973SOL    HW227919   3.628   4.621   6.862 -0.8137 -0.0992  0.4365
 6974SOL     OW27920   7.332   3.053   4.852  0.6842 -0.0725  0.1078
 6974SOL    HW127921   7.368   3.090   4.937  2.1339  0.3435 -0.6773
 6974SOL    HW227922   7.381   3.092   4.774  0.1282 -1.2870 -0.8762
 6975SOL     OW27923   4.168   2.199   4.203 -0.5285  0.0316  0.2450
 6975SOL    HW127924   4.253   2.198   4.256 -1.4948 -0.8625  1.8206
 6975SOL    HW227925   4.095   2.159   4.257 -2.0807  1.2209 -0.9148
 6976SOL     OW27926   6.979   2.978   0.748  0.3266 -0.1919  0.0306
 6976SOL    HW127927   7.025   2.942   0.830 -0.3840 -0.1120  0.4699
 6976SOL    HW227928   7.043   2.978   0.671  1.2845  0.6021  0.8126
 6977SOL     OW27929   1.559   3.011   3.215  0.6029  0.0743 -0.2194
 6977SOL    HW127930   1.557   2.924   3.264  0.3206  0.6385  0.7766
 6977SOL    HW227931   1.640   3.015   3.158  0.8569 -0.6527  0.0850
 6978SOL     OW27932   2.208   1.965   6.940  0.2230  0.1761  0.5860
 6978SOL    HW127933   2.272   2.033   6.905 -0.1785  0.5032  0.4881
 6978SOL    HW227934   2.190   1.896   6.869  0.2167  0.2632  0.5034
 6979SOL     OW27935   2.653   6.254   0.230 -0.1659 -0.3097 -0.2244
 6979SOL    HW127936   2.733   6.300   0.268  2.0083 -2.6666 -1.7760
 6979SOL    HW227937   2.581   6.249   0.299  0.7749  2.4175  1.0022
 6980SOL     OW27938   4.768   3.973   5.445 -0.3345 -0.3141 -0.1918
 6980SOL    HW127939   4.816   4.014   5.368  0.0790  1.2413  0.8888
 6980SOL    HW227940   4.794   3.877   5.454  0.0390 -0.3484 -1.6377
 6981SOL     OW27941   6.062   2.538   1.789  0.3717  0.1386 -0.7251
 6981SOL    HW127942   5.970   2.514   1.759  0.0366 -0.6571  0.8927
 6981SOL    HW227943   6.058   2.580   1.880  1.7031 -0.8996 -0.1741
 6982SOL     OW27944   6.837   7.107   5.626  0.2320 -0.8458 -0.3041
 6982SOL    HW127945   6.808   7.109   5.722 -1.3241  0.9461 -0.7913
 6982SOL    HW227946   6.865   7.014   5.602 -0.6085 -1.5960  1.5125
 6983SOL     OW27947   2.511   0.245   1.783  0.2895  0.7606  0.5138
 6983SOL    HW127948   2.591   0.301   1.803 -0.8780  0.8946  5.2848
 6983SOL    HW227949   2.432   0.281   1.832 -1.4566 -2.5378  0.2717
 6984SOL     OW27950   5.315   7.329   1.152 -0.3612  0.1488  0.0049
 6984SOL    HW127951   5.325   7.401   1.222  1.7044  0.8661 -0.9987
 6984SOL    HW227952   5.366   7.355   1.070  0.0537 -2.2784 -0.5401
 6985SOL     OW27953   5.969   3.335   4.583  0.1610 -0.5399 -0.4505
 6985SOL    HW127954   6.054   3.289   4.557  1.3071  1.9290 -1.1673
 6985SOL    HW227955   5.911   3.346   4.502 -0.5206 -1.5245 -0.1062
 6986SOL     OW27956   3.040   2.564   2.167  0.4253  0.1775 -0.1185
 6986SOL    HW127957   2.942   2.545   2.173  0.5582 -0.9135 -1.2410
 6986SOL    HW227958   3.086   2.522   2.245  0.0576  0.2898  0.1624
 6987SOL     OW27959   3.956   5.312   2.421 -0.4808 -0.3316 -0.2316
 6987SOL    HW127960   4.051   5.331   2.446  0.1720 -1.4891 -1.7311
 6987SOL    HW227961   3.934   5.217   2.445 -0.3212 -0.9795 -2.5043
 6988SOL     OW27962   0.028   2.921   5.244 -0.0773  0.1254  0.0171
 6988SOL    HW127963   0.093   2.935   5.318  0.6561  1.8820 -0.9191
 6988SOL    HW227964   0.002   3.010   5.205 -3.3591 -0.5050  0.6426
 6989SOL     OW27965   7.145   4.840   2.182 -0.1901 -0.5339 -0.2086
 6989SOL    HW127966   7.113   4.817   2.273  0.1888  2.3701  0.7190
 6989SOL    HW227967   7.241   4.869   2.186 -0.0515 -0.7619 -1.5799
 6990SOL     OW27968   0.289   6.489   7.021  0.4889 -0.0770 -0.1816
 6990SOL    HW127969   0.299   6.570   7.079  2.3750 -1.1366  1.0168
 6990SOL    HW227970   0.379   6.459   6.991 -0.1179 -2.3237  0.1999
 6991SOL     OW27971   1.955   3.266   6.675 -0.0558  0.2292 -0.9812
 6991SOL    HW127972   1.886   3.203   6.710  1.7097 -2.1973 -1.7227
 6991SOL    HW227973   1.916   3.323   6.603 -1.5450 -0.4052 -0.6924
 6992SOL     OW27974   5.802   4.730   2.880  0.1166  0.0109  0.2142
 6992SOL    HW127975   5.806   4.790   2.959  1.0442 -1.3342  1.2148
 6992SOL    HW227976   5.776   4.638   2.909 -0.8421 -0.1985 -1.2275
 6993SOL     OW27977   5.540   3.888   0.629  0.3005 -0.3024  0.1306
 6993SOL    HW127978   5.583   3.977   0.616  0.0985 -0.1053  0.7909
 6993SOL    HW227979   5.556   3.857   0.723  1.6083 -1.6190 -0.5156
 6994SOL     OW27980   4.038   2.744   7.000  0.2061  0.0217  0.0550
 6994SOL    HW127981   4.113   2.738   6.935 -1.1093 -0.7712 -1.4561
 6994SOL    HW227982   4.008   2.651   7.024 -0.0978  0.3253  0.8630
 6995SOL     OW27983   4.138   3.016   3.931 -0.0946 -1.1221 -0.9466
 6995SOL    HW127984   4.129   3.015   3.831 -1.6797 -1.4664 -0.8104
 6995SOL    HW227985   4.053   3.051   3.971  0.7887 -0.3437  0.2614
 6996SOL     OW27986   3.121   7.106   6.991 -0.7194  0.4204 -0.2399
 6996SOL    HW127987   3.077   7.075   7.076 -0.6811  2.7960  0.7109
 6996SOL    HW227988   3.130   7.030   6.928 -0.5219 -1.4623  1.9929
 6997SOL     OW27989   4.172   4.011   4.824  0.1917  0.2150 -0.1004
 6997SOL    HW127990   4.123   4.017   4.737 -0.1267 -1.8099 -0.0887
 6997SOL    HW227991   4.176   3.915   4.853  2.9334  0.5193  0.6203
 6998SOL     OW27992   7.099   1.394   1.052  0.2653 -0.4652 -0.0526
 6998SOL    HW127993   7.061   1.470   1.000  0.7073  0.4015  0.8529
 6998SOL    HW227994   7.039   1.373   1.129  0.2145 -0.9400 -0.2220
 6999SOL     OW27995   3.926   3.486   2.832 -0.2892  1.0237  0.4388
 6999SOL    HW127996   3.875   3.464   2.915  0.3860  0.2760  0.6546
 6999SOL    HW227997   3.916   3.412   2.766  1.8623  0.1032  1.1125
 7000SOL     OW27998   4.419   7.315   6.562  0.2143  0.1207 -0.2866
 7000SOL    HW127999   4.320   7.316   6.545  0.0829 -0.2651  0.4407
 7000SOL    HW228000   4.459   7.400   6.528 -0.3963  0.3607 -0.4148
 7001SOL     OW28001   2.892   6.730   0.158 -0.2988  0.0770  0.1215
 7001SOL    HW128002   2.855   6.646   0.196 -0.0785  0.3299  0.8976
 7001SOL    HW228003   2.870   6.734   0.060  0.7484 -1.4587 -0.1946
 7002SOL     OW28004   1.696   3.590   6.399 -0.4434  0.3091  0.0353
 7002SOL    HW128005   1.705   3.624   6.306  3.8174  2.0109  0.9708
 7002SOL    HW228006   1.683   3.667   6.462 -2.0791 -0.7279  1.0040
 7003SOL     OW28007   6.229   6.988   6.187 -0.3825  0.1158 -0.2529
 7003SOL    HW128008   6.185   7.011   6.101 -0.5638  0.5306 -0.0514
 7003SOL    HW228009   6.171   7.019   6.263 -0.3085 -0.4041  0.0177
 7004SOL     OW28010   5.531   1.174   4.485 -0.5467 -0.0987  0.1453
 7004SOL    HW128011   5.607   1.218   4.437  0.3900 -1.4813  0.3122
 7004SOL    HW228012   5.561   1.085   4.520 -2.4607 -0.9935 -0.4280
 7005SOL     OW28013   3.540   0.603   2.824 -0.2016 -0.4941  0.2691
 7005SOL    HW128014   3.447   0.567   2.810  0.0699 -1.1937  0.2166
 7005SOL    HW228015   3.605   0.527   2.821  0.5619  0.2146 -1.4955
 7006SOL     OW28016   6.515   3.585   2.160  0.3054  0.1054 -0.1928
 7006SOL    HW128017   6.426   3.594   2.204  1.2437  0.6942  1.6297
 7006SOL    HW228018   6.586   3.618   2.222  1.6746  0.8057 -2.0975
 7007SOL     OW28019   2.168   6.335   0.240 -0.6372 -0.2144  0.2955
 7007SOL    HW128020   2.123   6.270   0.302 -0.6070  0.1167  0.6649
 7007SOL    HW228021   2.162   6.301   0.146 -1.6554 -0.1842  0.3380
 7008SOL     OW28022   7.278   2.362   0.179 -0.0930  0.4042 -0.3760
 7008SOL    HW128023   7.309   2.275   0.215  1.0858  0.1570 -1.9283
 7008SOL    HW228024   7.209   2.347   0.108 -0.5566  0.7859 -0.0182
 7009SOL     OW28025   1.238   5.785   5.388  0.0234  0.7731 -0.5677
 7009SOL    HW128026   1.277   5.702   5.347 -0.6501 -0.5026  1.3183
 7009SOL    HW228027   1.303   5.860   5.378  1.9703 -0.7377  0.4445
 7010SOL     OW28028   2.929   3.214   2.417 -0.1125  0.3281 -0.4803
 7010SOL    HW128029   2.846   3.163   2.438 -1.3471  3.0987  1.7540
 7010SOL    HW228030   2.905   3.292   2.358  0.4536  2.3982  1.9412
 7011SOL     OW28031   4.339   5.692   6.798  0.0866  0.2009  0.1137
 7011SOL    HW128032   4.407   5.762   6.776 -0.0596  0.5095  0.6326
 7011SOL    HW228033   4.247   5.731   6.791  0.0066  0.0705  0.4296
 7012SOL     OW28034   3.985   3.091   4.686 -0.3978 -0.4731 -0.2948
 7012SOL    HW128035   3.898   3.139   4.699  0.1686  0.7736 -1.0535
 7012SOL    HW228036   4.029   3.078   4.775 -0.3666  0.7996 -0.1145
 7013SOL     OW28037   4.675   1.391   5.914  0.0540 -0.0626 -0.7394
 7013SOL    HW128038   4.747   1.459   5.930  1.0281 -1.5161  1.2998
 7013SOL    HW228039   4.714   1.299   5.917 -1.8831 -0.8903  0.4890
 7014SOL     OW28040   5.098   0.430   1.847  0.4301 -0.7234  0.1617
 7014SOL    HW128041   5.097   0.525   1.876 -0.3407 -0.6322 -0.1374
 7014SOL    HW228042   5.039   0.419   1.766 -0.0552 -1.5751  0.6183
 7015SOL     OW28043   6.927   1.403   1.270  0.2563  0.1613 -0.0401
 7015SOL    HW128044   6.885   1.392   1.360 -1.7695 -0.3279 -1.0076
 7015SOL    HW228045   6.932   1.500   1.246  0.6122  0.2794  0.5147
 7016SOL     OW28046   4.782   5.859   6.430  0.6461 -0.3571  0.6423
 7016SOL    HW128047   4.827   5.780   6.471  1.7442 -0.3625 -0.5622
 7016SOL    HW228048   4.831   5.943   6.457  0.6109 -0.2514  0.3775
 7017SOL     OW28049   3.033   6.910   6.283  0.1758 -0.0687 -0.3140
 7017SOL    HW128050   3.107   6.852   6.248  0.3370 -0.9830  1.4752
 7017SOL    HW228051   3.049   6.928   6.380 -2.5703 -1.2801  0.4150
 7018SOL     OW28052   3.869   3.051   4.022 -0.0664  0.3689 -0.0577
 7018SOL    HW128053   3.827   3.125   4.074  0.4131  0.2891  0.4450
 7018SOL    HW228054   3.814   2.968   4.034  0.3907  0.1901  0.8404
 7019SOL     OW28055   0.981   5.572   5.267 -0.1337 -0.0148  0.6836
 7019SOL    HW128056   1.067   5.594   5.312 -0.2002  0.2219  0.6950
 7019SOL    HW228057   0.995   5.568   5.168  0.0142 -0.5442  0.7243
 7020SOL     OW28058   5.302   3.690   1.055  0.2639  0.4423 -0.4406
 7020SOL    HW128059   5.288   3.672   1.152  0.4994  0.4356 -0.4066
 7020SOL    HW228060   5.230   3.646   1.001  0.4814 -0.0715 -0.3129
 7021SOL     OW28061   4.155   6.971   1.862 -0.2144 -0.0401  0.4383
 7021SOL    HW128062   4.227   6.951   1.796 -0.5794 -1.5698  0.4846
 7021SOL    HW228063   4.068   6.981   1.814 -0.0858  1.2017  0.4469
 7022SOL     OW28064   2.458   2.575   2.625  0.1224  0.4443 -0.3562
 7022SOL    HW128065   2.375   2.614   2.664  1.4944  0.8621  2.2579
 7022SOL    HW228066   2.449   2.475   2.620 -0.1571  0.4044  0.8525
 7023SOL     OW28067   0.838   0.207   1.174  0.1742 -0.2943  0.0245
 7023SOL    HW128068   0.845   0.108   1.186  0.1768 -0.3367 -0.3314
 7023SOL    HW228069   0.750   0.230   1.131  0.3804 -0.1771 -0.3290
 7024SOL     OW28070   5.137   0.286   6.000 -1.0048  0.1543 -0.0278
 7024SOL    HW128071   5.181   0.345   6.068 -1.7712  1.6444 -0.8092
 7024SOL    HW228072   5.188   0.200   5.993  0.3885  0.8900  0.8111
 7025SOL     OW28073   5.868   5.834   5.595 -0.5936 -0.4927 -0.6444
 7025SOL    HW128074   5.845   5.799   5.686  2.3873  2.7712  1.5283
 7025SOL    HW228075   5.794   5.891   5.561 -0.7989  0.1086  0.7756
 7026SOL     OW28076   7.210   3.474   2.962 -0.1451  0.0522 -0.2258
 7026SOL    HW128077   7.211   3.562   2.915  0.9572  0.3833  0.3816
 7026SOL    HW228078   7.284   3.417   2.926 -1.1187 -0.7794 -0.9061
 7027SOL     OW28079   5.174   2.545   2.523 -0.2694  0.1872  0.5549
 7027SOL    HW128080   5.188   2.624   2.463 -1.2169  0.4342  0.6581
 7027SOL    HW228081   5.235   2.552   2.602 -0.9013  1.2117  0.9579
 7028SOL     OW28082   6.882   0.792   2.428 -0.2252  0.1778 -0.5593
 7028SOL    HW128083   6.883   0.727   2.504 -0.1417  1.1489  0.2786
 7028SOL    HW228084   6.976   0.811   2.399 -0.0174  2.7636  1.6651
 7029SOL     OW28085   2.041   7.297   0.724 -0.0303 -0.2928 -0.1467
 7029SOL    HW128086   2.100   7.270   0.800  1.0548  0.7511 -0.6054
 7029SOL    HW228087   1.984   7.374   0.752 -2.9409 -2.7754  1.0763
 7030SOL     OW28088   6.738   3.366   7.288 -0.7578 -0.4964  0.1981
 7030SOL    HW128089   6.756   3.324   7.199  1.8930 -0.3907  0.6524
 7030SOL    HW228090   6.677   3.445   7.275 -0.9747 -0.9034 -1.4188
 7031SOL     OW28091   2.183   2.549   1.903  0.3916  0.3203  0.5653
 7031SOL    HW128092   2.178   2.585   1.809 -3.6665 -1.6042 -0.0947
 7031SOL    HW228093   2.271   2.504   1.917  1.7518  2.1305 -1.7006
 7032SOL     OW28094   4.922   0.751   3.851  0.1815  0.5503 -0.4259
 7032SOL    HW128095   4.822   0.749   3.848  0.1612  1.5350 -0.8396
 7032SOL    HW228096   4.952   0.780   3.942  0.0998 -0.2590 -0.1432
 7033SOL     OW28097   3.511   5.042   1.909 -0.1389 -0.3079 -0.5440
 7033SOL    HW128098   3.579   4.979   1.947 -1.0860 -1.6822 -1.1008
 7033SOL    HW228099   3.427   4.992   1.887 -1.9170  1.6400  1.5605
 7034SOL     OW28100   1.915   2.069   3.561  0.3218 -0.4040 -0.2209
 7034SOL    HW128101   1.860   1.990   3.589  1.9910 -1.3214  0.5309
 7034SOL    HW228102   1.951   2.116   3.642 -0.2462  0.8450 -0.6747
 7035SOL     OW28103   2.318   3.707   5.827  0.0057 -0.6136 -0.0989
 7035SOL    HW128104   2.315   3.608   5.840 -0.3736 -0.5601  0.2354
 7035SOL    HW228105   2.225   3.743   5.828  0.1068 -0.3296 -0.7992
 7036SOL     OW28106   1.773   0.632   0.231 -0.3223 -0.2233  0.0187
 7036SOL    HW128107   1.696   0.571   0.217 -0.3657 -0.3121  0.6657
 7036SOL    HW228108   1.803   0.669   0.142  0.2841 -1.8751 -0.4760
 7037SOL     OW28109   4.695   3.635   6.840  0.1189  0.0042  0.8228
 7037SOL    HW128110   4.653   3.548   6.869  0.9471 -1.6923 -2.7796
 7037SOL    HW228111   4.793   3.621   6.827  0.1073  1.2069 -0.6820
 7038SOL     OW28112   6.990   2.895   4.174  0.2523 -0.3408  0.0363
 7038SOL    HW128113   7.061   2.897   4.103  0.1806 -0.1061 -0.0293
 7038SOL    HW228114   6.929   2.973   4.162 -1.0322 -1.4651 -0.9502
 7039SOL     OW28115   0.524   6.879   4.872 -0.1336  0.2318  0.3954
 7039SOL    HW128116   0.607   6.872   4.817  0.5427  0.6146  1.3533
 7039SOL    HW228117   0.486   6.788   4.888 -0.5337  0.1438 -0.9880
 7040SOL     OW28118   2.553   0.341   6.544 -0.0587 -0.7080 -0.4333
 7040SOL    HW128119   2.616   0.323   6.619  2.1081 -2.2302 -2.5303
 7040SOL    HW228120   2.460   0.321   6.573  0.6743 -0.7722  1.9862
 7041SOL     OW28121   4.042   2.929   6.300  0.6125 -0.2736 -0.1867
 7041SOL    HW128122   4.053   2.861   6.227  0.4112 -0.4316 -0.0740
 7041SOL    HW228123   4.036   2.882   6.388 -0.6234 -0.1890 -0.2119
 7042SOL     OW28124   0.727   4.480   0.918 -0.4533  0.7801  0.1981
 7042SOL    HW128125   0.818   4.496   0.957 -0.3402 -1.7903  1.0797
 7042SOL    HW228126   0.657   4.510   0.982 -0.2441 -1.1802  1.3729
 7043SOL     OW28127   2.354   2.860   1.341 -0.0972  0.3197 -0.2310
 7043SOL    HW128128   2.403   2.889   1.423  2.5397 -1.5978 -1.0574
 7043SOL    HW228129   2.326   2.764   1.351  2.6425 -0.7896 -2.5894
 7044SOL     OW28130   0.980   1.015   1.923 -0.3618 -0.0411 -0.6293
 7044SOL    HW128131   0.955   0.983   1.832  2.2001 -0.4110 -1.2418
 7044SOL    HW228132   0.991   1.114   1.921 -0.5533 -0.0201 -0.6594
 7045SOL     OW28133   2.068   5.363   7.201 -0.7528 -0.1290  0.2473
 7045SOL    HW128134   2.012   5.380   7.282 -0.8153 -1.0345  0.4044
 7045SOL    HW228135   2.086   5.265   7.194 -2.3731 -0.2914 -1.9118
 7046SOL     OW28136   4.774   6.129   6.279  0.2555 -0.4598 -0.0753
 7046SOL    HW128137   4.790   6.147   6.376  0.5679 -0.7237 -0.0785
 7046SOL    HW228138   4.724   6.043   6.270 -1.4958  0.5316 -0.0423
 7047SOL     OW28139   5.801   1.308   6.775 -0.1162 -0.1347 -0.2501
 7047SOL    HW128140   5.765   1.376   6.839  1.3126 -1.3147  1.8267
 7047SOL    HW228141   5.891   1.337   6.743 -0.1019 -0.3885 -0.4388
 7048SOL     OW28142   4.171   7.277   6.155 -0.0644  0.0069  0.4564
 7048SOL    HW128143   4.090   7.218   6.164 -0.0146 -0.2076 -0.4412
 7048SOL    HW228144   4.152   7.349   6.088  0.2505  0.3640  0.7535
 7049SOL     OW28145   5.495   0.959   6.515  0.0055 -0.4919  0.1189
 7049SOL    HW128146   5.434   0.950   6.436  0.5112 -1.2216 -0.1987
 7049SOL    HW228147   5.444   0.996   6.592 -0.2283  1.2724 -0.8600
 7050SOL     OW28148   0.641   4.603   3.393  0.3676  0.0514  0.0117
 7050SOL    HW128149   0.733   4.585   3.427  0.1959 -2.0349 -0.5087
 7050SOL    HW228150   0.646   4.661   3.312  1.3607 -1.1868 -0.8490
 7051SOL     OW28151   3.060   1.843   5.769 -0.1598 -0.1338  0.0674
 7051SOL    HW128152   2.961   1.850   5.779 -0.0920  0.3522  0.4341
 7051SOL    HW228153   3.082   1.783   5.693 -0.7408  0.7099 -0.7753
 7052SOL     OW28154   4.061   1.358   2.670 -0.2006  0.1528  0.1999
 7052SOL    HW128155   4.005   1.275   2.679 -0.8907  0.4503 -1.2448
 7052SOL    HW228156   4.141   1.338   2.613  1.7121 -0.5187  3.0073
 7053SOL     OW28157   2.871   2.139   3.131 -0.3116  0.0018 -0.9773
 7053SOL    HW128158   2.889   2.048   3.093  2.5976  0.2313 -0.2999
 7053SOL    HW228159   2.939   2.204   3.096 -0.4847  1.2270  0.8852
 7054SOL     OW28160   5.171   4.474   5.070 -0.6604 -0.3726 -0.3707
 7054SOL    HW128161   5.126   4.388   5.046  0.0716 -0.8479 -0.0695
 7054SOL    HW228162   5.207   4.518   4.988 -2.6105  0.5492 -0.7457
 7055SOL     OW28163   6.595   6.829   7.163 -0.7467 -0.0578 -0.3570
 7055SOL    HW128164   6.531   6.856   7.234  0.0710  0.0308  0.3485
 7055SOL    HW228165   6.663   6.901   7.149 -0.2310 -0.5457 -0.4231
 7056SOL     OW28166   0.808   0.490   0.742  0.5754 -0.2526  0.0661
 7056SOL    HW128167   0.862   0.406   0.753 -0.0643 -0.6546  0.1465
 7056SOL    HW228168   0.736   0.474   0.674 -1.2380 -0.6007  2.0038
 7057SOL     OW28169   6.183   2.838   3.297  0.2126 -0.5563  0.5204
 7057SOL    HW128170   6.251   2.871   3.363  0.6283 -1.6824  0.6639
 7057SOL    HW228171   6.102   2.896   3.300  0.4332 -0.3041  1.6590
 7058SOL     OW28172   4.527   4.784   3.277  0.6270 -0.0689 -0.5340
 7058SOL    HW128173   4.555   4.698   3.234  0.1352 -0.2015 -0.5870
 7058SOL    HW228174   4.449   4.823   3.228 -0.3278 -0.5230  0.5879
 7059SOL     OW28175   0.303   0.088   3.080  0.0597 -1.0031 -0.2873
 7059SOL    HW128176   0.331   0.165   3.137 -0.7944  0.6570 -2.0652
 7059SOL    HW228177   0.242   0.028   3.132 -1.2219  0.8329  0.3481
 7060SOL     OW28178   7.083   2.779   1.833 -0.1521 -0.0152 -0.0802
 7060SOL    HW128179   7.085   2.805   1.737  0.4500 -0.3057 -0.1499
 7060SOL    HW228180   7.140   2.698   1.846  2.8904  2.2505  1.1894
 7061SOL     OW28181   6.378   4.262   1.044  0.0781 -0.8704  0.4137
 7061SOL    HW128182   6.362   4.295   1.137  4.5797  0.5906  0.7911
 7061SOL    HW228183   6.458   4.202   1.043 -0.5031 -1.6729 -2.3473
 7062SOL     OW28184   6.405   4.024   1.701 -0.4356 -0.1173 -0.5386
 7062SOL    HW128185   6.487   4.032   1.645 -0.5200 -0.5938 -0.7371
 7062SOL    HW228186   6.386   3.928   1.719 -1.3018 -0.0481 -1.0287
 7063SOL     OW28187   6.295   0.803   0.131 -0.0126 -0.7907  0.4355
 7063SOL    HW128188   6.288   0.747   0.214  1.0328 -1.9720 -0.2412
 7063SOL    HW228189   6.206   0.808   0.086 -0.1065 -2.0117  0.4580
 7064SOL     OW28190   5.924   0.924   0.223  0.1623 -0.1680 -0.4007
 7064SOL    HW128191   5.987   0.903   0.298 -0.9063  0.5628  0.7127
 7064SOL    HW228192   5.974   0.919   0.136  2.1018  1.7547  0.5501
 7065SOL     OW28193   5.573   4.405   0.502 -0.2789 -0.1668  0.5142
 7065SOL    HW128194   5.490   4.452   0.532 -0.2862  0.9298 -1.1936
 7065SOL    HW228195   5.646   4.422   0.568 -0.6128  1.2830  0.5255
 7066SOL     OW28196   4.150   6.974   0.907  0.0920  0.2353  0.2422
 7066SOL    HW128197   4.233   6.950   0.956  0.5910  0.9052 -0.2501
 7066SOL    HW228198   4.133   7.072   0.917 -1.3055 -0.1122  1.3409
 7067SOL     OW28199   0.046   0.468   2.293 -0.2721  0.1433  0.2250
 7067SOL    HW128200   0.055   0.378   2.250  1.6540  0.2306  0.3864
 7067SOL    HW228201  -0.032   0.468   2.355 -0.3903 -1.3738  0.0947
 7068SOL     OW28202   4.545   2.217   3.735 -0.0905  0.4007 -0.1272
 7068SOL    HW128203   4.571   2.144   3.798  0.6889  0.7325 -0.0502
 7068SOL    HW228204   4.451   2.245   3.753  0.1083  0.4648  0.8822
 7069SOL     OW28205   4.391   4.164   6.065  0.0357 -0.2698  0.1421
 7069SOL    HW128206   4.328   4.088   6.053  0.2863 -0.2472 -1.3366
 7069SOL    HW228207   4.340   4.244   6.098 -0.9720  0.1294 -2.2633
 7070SOL     OW28208   4.441   4.415   5.286  0.2742 -0.1014  0.6042
 7070SOL    HW128209   4.361   4.404   5.227  0.5610  0.1905  0.1591
 7070SOL    HW228210   4.414   4.401   5.382 -0.0676 -1.2080  0.3606
 7071SOL     OW28211   5.065   1.173   6.751  0.1590  0.2648  0.1435
 7071SOL    HW128212   4.974   1.136   6.732  0.4074  0.6014 -1.8558
 7071SOL    HW228213   5.071   1.201   6.846 -1.8010  0.1520  0.3152
 7072SOL     OW28214   2.787   4.211   4.529  0.4810  0.0583 -0.1522
 7072SOL    HW128215   2.733   4.211   4.445 -0.5641 -1.4359  0.4911
 7072SOL    HW228216   2.730   4.240   4.606  0.9326 -0.3232  0.3326
 7073SOL     OW28217   1.860   0.264   3.769 -0.6592  0.1708 -0.4800
 7073SOL    HW128218   1.833   0.212   3.688 -0.8152  0.5596 -0.6797
 7073SOL    HW228219   1.918   0.207   3.827 -0.2030  0.0180 -1.0696
 7074SOL     OW28220   0.763   6.381   0.159  0.1439 -0.4232 -0.5055
 7074SOL    HW128221   0.859   6.389   0.187 -0.3440 -1.3945  1.5376
 7074SOL    HW228222   0.726   6.294   0.192 -2.4560  1.5178  1.9008
 7075SOL     OW28223   7.255   1.190   5.371  0.3418 -0.3242  0.1216
 7075SOL    HW128224   7.201   1.223   5.294  2.7541  0.5905 -1.2151
 7075SOL    HW228225   7.257   1.259   5.443 -0.9815 -0.7276  0.5673
 7076SOL     OW28226   5.487   2.929   4.768  0.0943  0.2925 -0.2085
 7076SOL    HW128227   5.471   2.948   4.671  0.8276 -0.4101 -0.4770
 7076SOL    HW228228   5.409   2.879   4.806  0.1042 -0.0312 -0.6133
 7077SOL     OW28229   3.474   0.123   0.592  0.0452  0.1582 -0.4485
 7077SOL    HW128230   3.379   0.094   0.605  0.5981 -0.7531  1.7682
 7077SOL    HW228231   3.535   0.044   0.600  1.1860  1.1440  1.0268
 7078SOL     OW28232   4.205   0.609   3.789  0.1484 -0.3388 -0.5702
 7078SOL    HW128233   4.153   0.694   3.794  3.2129  1.6759 -1.5214
 7078SOL    HW228234   4.178   0.558   3.708 -1.1541  0.1134 -0.4264
 7079SOL     OW28235   0.605   0.184   1.032 -1.0397  0.1120  0.0647
 7079SOL    HW128236   0.641   0.277   1.027  1.9934 -0.9333  0.8547
 7079SOL    HW228237   0.534   0.171   0.964  1.4481  1.7806 -2.9728
 7080SOL     OW28238   2.192   4.058   6.726  0.1590 -0.6306 -0.2871
 7080SOL    HW128239   2.243   4.050   6.640 -0.0263 -1.6775 -0.3035
 7080SOL    HW228240   2.209   3.978   6.783 -2.1376 -1.4201 -0.6523
 7081SOL     OW28241   6.958   7.116   6.531 -0.5868 -0.6633 -0.4724
 7081SOL    HW128242   6.961   7.210   6.563 -0.1038 -0.8710  0.1097
 7081SOL    HW228243   6.994   7.111   6.438 -2.2524 -0.0126 -1.1572
 7082SOL     OW28244   5.095   2.005   3.055 -0.4838 -0.6151  0.7933
 7082SOL    HW128245   5.190   2.006   3.024 -1.1170 -1.0761 -1.2223
 7082SOL    HW228246   5.083   1.937   3.126  1.4084  1.7224  3.4469
 7083SOL     OW28247   6.753   2.255   6.000  0.1910 -0.0463 -0.1595
 7083SOL    HW128248   6.787   2.334   5.949 -0.7329  1.0226  0.8659
 7083SOL    HW228249   6.658   2.236   5.974 -0.3941  0.7103  1.4032
 7084SOL     OW28250   3.350   1.187   6.341  0.1608 -0.2143 -0.6064
 7084SOL    HW128251   3.415   1.113   6.360 -0.8457 -0.4509  2.1850
 7084SOL    HW228252   3.352   1.209   6.244  4.7681  0.1130 -0.5395
 7085SOL     OW28253   2.126   3.946   1.360  0.3998 -0.3295 -0.1641
 7085SOL    HW128254   2.038   3.986   1.385 -0.0026 -0.5851 -1.1427
 7085SOL    HW228255   2.111   3.863   1.307  1.2149  1.1871 -2.8527
 7086SOL     OW28256   5.402   5.709   6.182 -0.3509 -0.0359 -0.0030
 7086SOL    HW128257   5.490   5.672   6.212 -0.2352  0.4678  0.2799
 7086SOL    HW228258   5.353   5.640   6.129 -0.0884 -0.5609  0.4353
 7087SOL     OW28259   4.634   5.707   1.927 -0.8602  0.1117 -0.1421
 7087SOL    HW128260   4.643   5.666   2.018  1.7012 -0.3947 -0.5986
 7087SOL    HW228261   4.578   5.789   1.933 -1.0655 -0.1506  1.8213
 7088SOL     OW28262   3.855   1.051   6.110  0.2033 -0.1706 -0.3131
 7088SOL    HW128263   3.912   0.994   6.170 -1.7620 -0.2805  1.5173
 7088SOL    HW228264   3.887   1.145   6.112 -1.2233  0.2998  2.7840
 7089SOL     OW28265   2.658   4.107   5.839  0.4004 -0.3204  0.5548
 7089SOL    HW128266   2.650   4.146   5.747  1.1213 -0.3272  0.4862
 7089SOL    HW228267   2.715   4.166   5.895  0.2780 -0.5187  0.8871
 7090SOL     OW28268   3.005   5.664   4.764  0.5509 -0.3941  0.1565
 7090SOL    HW128269   3.083   5.642   4.822  1.0768 -1.7071 -1.0187
 7090SOL    HW228270   2.920   5.644   4.812  0.9672 -0.3771  0.8972
 7091SOL     OW28271   4.768   6.984   1.072 -0.0157  0.2258  0.1950
 7091SOL    HW128272   4.784   7.079   1.044  0.7502  0.0603  0.0769
 7091SOL    HW228273   4.809   6.968   1.161  1.3351 -0.4643 -0.5363
 7092SOL     OW28274   0.772   0.908   1.660 -0.1238 -0.8788  0.4276
 7092SOL    HW128275   0.733   0.839   1.598  1.3482 -1.2290 -0.1258
 7092SOL    HW228276   0.865   0.931   1.630  0.0002  0.1540  1.5697
 7093SOL     OW28277   2.135   1.185   1.134  0.6222 -0.0486  0.2660
 7093SOL    HW128278   2.126   1.115   1.064 -0.3015  0.4791 -0.1441
 7093SOL    HW228279   2.152   1.141   1.223  0.5151 -0.7733 -0.0702
 7094SOL     OW28280   3.471   3.511   4.520  0.5335  0.6112  0.6254
 7094SOL    HW128281   3.553   3.566   4.509  0.1064  1.0477 -0.4136
 7094SOL    HW228282   3.458   3.489   4.617  2.2721 -0.0842  0.7234
 7095SOL     OW28283   3.945   2.703   4.603  0.5215  0.2409  0.2166
 7095SOL    HW128284   3.900   2.770   4.543  0.6378 -0.0594 -0.2099
 7095SOL    HW228285   4.031   2.741   4.636  1.2846 -0.2386 -1.1731
 7096SOL     OW28286   2.318   1.914   0.741 -0.0773  0.3159 -0.5967
 7096SOL    HW128287   2.337   1.830   0.690  2.6567  0.8784 -0.5695
 7096SOL    HW228288   2.330   1.993   0.680  1.8916  0.9224  0.5594
 7097SOL     OW28289   0.208   2.501   6.501  0.0675 -0.2684  0.2557
 7097SOL    HW128290   0.158   2.501   6.588  1.4905  0.8107  1.0927
 7097SOL    HW228291   0.269   2.422   6.498  0.2625 -0.1269  0.4018
 7098SOL     OW28292   1.667   0.040   3.721 -0.1859  0.9449  0.0534
 7098SOL    HW128293   1.581   0.091   3.723  1.4477  3.8377 -0.6234
 7098SOL    HW228294   1.708   0.041   3.812 -0.6062 -0.0118  0.2599
 7099SOL     OW28295   5.577   4.995   4.827 -0.6521 -0.7468  0.3199
 7099SOL    HW128296   5.648   4.949   4.774 -1.6848 -0.4997 -1.3139
 7099SOL    HW228297   5.619   5.044   4.903  0.8208 -1.4584 -0.0188
 7100SOL     OW28298   4.150   7.244   0.876  0.1762 -0.0523 -0.5974
 7100SOL    HW128299   4.056   7.246   0.841 -0.4851 -2.3975  0.9748
 7100SOL    HW228300   4.214   7.239   0.799 -1.0581 -0.6466 -1.6013
 7101SOL     OW28301   0.795   5.658   6.653  1.2500 -0.1176  0.0445
 7101SOL    HW128302   0.726   5.717   6.610  1.0507 -0.0455  0.4548
 7101SOL    HW228303   0.806   5.574   6.599  0.9360 -0.0674 -0.0975
 7102SOL     OW28304   7.165   3.277   5.213 -0.2749  0.5838  0.2236
 7102SOL    HW128305   7.177   3.372   5.187 -3.5112  1.5866  2.0462
 7102SOL    HW228306   7.099   3.234   5.151  1.5119 -0.6542 -0.8764
 7103SOL     OW28307   5.608   6.368   2.261 -0.1463  0.1151  0.1739
 7103SOL    HW128308   5.619   6.442   2.327  0.6740 -0.1074  0.2908
 7103SOL    HW228309   5.673   6.381   2.185 -1.6166  0.8024 -0.9828
 7104SOL     OW28310   4.780   6.939   7.201 -0.4184 -0.7281  0.7178
 7104SOL    HW128311   4.753   6.981   7.115  1.8164  1.0667  0.8551
 7104SOL    HW228312   4.819   6.848   7.184 -0.4933 -0.6074 -0.0902
 7105SOL     OW28313   7.006   3.636   5.593  0.0036 -0.1842  0.1451
 7105SOL    HW128314   7.027   3.731   5.616  2.6823 -0.7085  0.0174
 7105SOL    HW228315   6.972   3.631   5.500  0.7873  0.5487 -0.1877
 7106SOL     OW28316   1.194   3.844   1.218 -0.0474 -0.5635  0.3770
 7106SOL    HW128317   1.173   3.748   1.237 -1.2633 -0.9249 -2.4858
 7106SOL    HW228318   1.261   3.849   1.144 -1.6135  0.7942 -0.9900
 7107SOL     OW28319   4.553   0.333   0.140  0.1474  0.3607 -0.3678
 7107SOL    HW128320   4.486   0.406   0.129 -0.7958 -0.0306  2.3161
 7107SOL    HW228321   4.506   0.245   0.151  1.1121 -0.0701  0.5053
 7108SOL     OW28322   6.667   0.625   1.423  0.0461  0.3879  0.2027
 7108SOL    HW128323   6.728   0.592   1.350 -0.7113  0.4019 -0.4471
 7108SOL    HW228324   6.586   0.567   1.427  1.5468 -1.6575  3.2338
 7109SOL     OW28325   1.948   6.892   1.639 -0.3987  0.3859  0.0787
 7109SOL    HW128326   1.973   6.971   1.584  0.3409 -0.3464 -0.6596
 7109SOL    HW228327   1.908   6.922   1.725  0.9771  1.5748  0.3153
 7110SOL     OW28328   3.033   1.685   6.645  0.0818  0.3745  0.5759
 7110SOL    HW128329   2.950   1.641   6.679 -0.2038  0.8601  0.5118
 7110SOL    HW228330   3.009   1.745   6.568  0.6316 -0.2559 -0.0888
 7111SOL     OW28331   3.266   4.837   5.422 -0.0107 -0.3205  0.1170
 7111SOL    HW128332   3.194   4.887   5.471 -0.8696 -1.9730  0.5741
 7111SOL    HW228333   3.350   4.891   5.423 -0.6702  0.7186  1.3735
 7112SOL     OW28334   2.909   5.387   4.679  0.1139  0.3797 -0.1774
 7112SOL    HW128335   2.839   5.358   4.745  0.5055  1.4191  0.7045
 7112SOL    HW228336   2.985   5.322   4.680  1.0589  1.4821  1.9046
 7113SOL     OW28337   1.904   2.065   3.148  0.6458 -0.7688 -0.1980
 7113SOL    HW128338   1.981   2.055   3.210  0.5975  1.4867  0.2718
 7113SOL    HW228339   1.931   2.035   3.056  2.1193  0.0749 -0.0570
 7114SOL     OW28340   4.758   1.439   4.025  0.1803  0.0687 -0.7086
 7114SOL    HW128341   4.834   1.418   4.087 -0.2027  0.9073  0.0605
 7114SOL    HW228342   4.757   1.373   3.950  0.3237 -1.3012  0.4677
 7115SOL     OW28343   6.188   2.503   4.688 -0.0164 -0.0086 -0.2716
 7115SOL    HW128344   6.185   2.517   4.787  1.9448  2.7694 -0.5498
 7115SOL    HW228345   6.190   2.591   4.641  0.2609 -1.2672 -2.7471
 7116SOL     OW28346   5.438   0.664   1.251  0.6234  1.3836  0.1833
 7116SOL    HW128347   5.437   0.649   1.153  0.4072  1.3783  0.1860
 7116SOL    HW228348   5.348   0.695   1.281 -0.1870 -1.3590  0.8008
 7117SOL     OW28349   1.911   1.245   6.890  0.9681  0.0549 -0.2614
 7117SOL    HW128350   2.004   1.263   6.857  1.1400  0.6128  0.5208
 7117SOL    HW228351   1.897   1.147   6.899  1.0926 -0.0897 -1.4933
 7118SOL     OW28352   1.831   2.924   1.591  0.1296  0.4211  0.1475
 7118SOL    HW128353   1.790   2.875   1.514  0.1663  1.0450 -0.2686
 7118SOL    HW228354   1.801   3.019   1.590 -1.2282  0.0268  1.8948
 7119SOL     OW28355   3.451   4.943   3.956  0.5612  0.2567 -0.3356
 7119SOL    HW128356   3.355   4.942   3.926  0.9115  1.7509 -1.5621
 7119SOL    HW228357   3.455   4.938   4.056 -0.8288  1.0086 -0.2321
 7120SOL     OW28358   0.218   3.447   6.247  0.2207  0.3703 -0.5334
 7120SOL    HW128359   0.275   3.394   6.186 -0.6316 -1.2851  0.0862
 7120SOL    HW228360   0.272   3.480   6.324  0.9412  1.1683 -1.3611
 7121SOL     OW28361   2.867   2.580   3.798  0.1938 -0.6914  0.1244
 7121SOL    HW128362   2.922   2.551   3.876  0.3273 -0.4773  0.1106
 7121SOL    HW228363   2.793   2.639   3.829 -0.2156 -1.2379  0.1787
 7122SOL     OW28364   1.527   4.087   1.211 -0.0529 -0.1701  0.4654
 7122SOL    HW128365   1.538   4.048   1.302 -0.0848  1.5925  1.2445
 7122SOL    HW228366   1.605   4.063   1.154  0.1988 -0.8841  1.1148
 7123SOL     OW28367   0.177   0.559   1.368 -0.8959 -0.4374  0.4770
 7123SOL    HW128368   0.115   0.565   1.290 -0.7990 -0.4229  0.4015
 7123SOL    HW228369   0.168   0.642   1.424  0.9038  0.7171 -0.9097
 7124SOL     OW28370   1.965   3.810   0.699 -0.0863 -0.0724  0.2592
 7124SOL    HW128371   2.048   3.756   0.684 -0.9385 -1.9698  2.1229
 7124SOL    HW228372   1.990   3.904   0.723  1.4429  0.0793 -1.7632
 7125SOL     OW28373   0.651   0.462   1.035  0.4634  0.1756 -0.2309
 7125SOL    HW128374   0.588   0.501   0.968  1.1257  0.3973 -0.7255
 7125SOL    HW228375   0.707   0.535   1.076  0.7526 -0.0839 -0.1605
 7126SOL     OW28376   2.522   1.651   6.048 -0.0713 -0.0770 -0.3757
 7126SOL    HW128377   2.516   1.717   6.123 -1.0542 -1.5559  0.8987
 7126SOL    HW228378   2.429   1.632   6.014 -0.0664 -2.6405  0.9500
 7127SOL     OW28379   3.819   2.072   2.878 -0.0816 -0.1059 -0.5050
 7127SOL    HW128380   3.889   2.126   2.831 -0.6676  1.4463  0.4059
 7127SOL    HW228381   3.854   1.979   2.894  1.6428  0.5562 -0.3598
 7128SOL     OW28382   0.962   3.730   1.480 -0.6526 -0.4409 -0.0597
 7128SOL    HW128383   0.981   3.826   1.457 -1.5887 -0.5421 -1.2848
 7128SOL    HW228384   0.863   3.717   1.489 -0.5781 -1.4792 -0.7090
 7129SOL     OW28385   2.719   0.356   7.256 -0.0188  0.3551  0.3876
 7129SOL    HW128386   2.711   0.381   7.352  0.8234  1.7176  0.1160
 7129SOL    HW228387   2.736   0.438   7.201 -0.7890 -0.3630 -0.9614
 7130SOL     OW28388   2.077   3.752   5.926  0.1522 -0.2379  0.1490
 7130SOL    HW128389   2.055   3.656   5.947 -0.7892 -0.2581 -0.8498
 7130SOL    HW228390   2.021   3.812   5.983  0.1290 -0.2892  0.1805
 7131SOL     OW28391   0.143   6.239   6.481  0.0618 -0.5144  0.5694
 7131SOL    HW128392   0.184   6.236   6.390 -2.7724 -0.9044 -0.7690
 7131SOL    HW228393   0.151   6.331   6.519 -0.1201  0.0528 -0.7556
 7132SOL     OW28394   5.366   7.215   2.876 -0.0098  0.1852  0.0196
 7132SOL    HW128395   5.457   7.189   2.843  0.2464 -0.7932  1.4931
 7132SOL    HW228396   5.300   7.144   2.852  0.1243 -0.3947  1.3604
 7133SOL     OW28397   1.915   3.618   2.669 -0.0877 -0.2794 -0.4488
 7133SOL    HW128398   1.993   3.673   2.701 -0.8818  2.6112 -3.2355
 7133SOL    HW228399   1.944   3.564   2.591 -0.1963 -1.2589  0.1881
 7134SOL     OW28400   6.172   3.065   3.049 -0.2194 -0.0291  0.3027
 7134SOL    HW128401   6.231   3.101   3.121  1.7006  0.2984 -1.3970
 7134SOL    HW228402   6.159   3.135   2.978 -1.5329 -0.5836 -0.0223
 7135SOL     OW28403   1.904   2.829   4.182  0.1433  0.1936  0.1330
 7135SOL    HW128404   1.960   2.803   4.103  0.5573  0.1993  0.4197
 7135SOL    HW228405   1.862   2.748   4.222  2.5895 -0.2506  1.8990
 7136SOL     OW28406   5.619   7.049   3.110  0.4011  0.4257  0.3327
 7136SOL    HW128407   5.648   7.023   3.018 -0.2611  0.6420  0.0559
 7136SOL    HW228408   5.633   7.147   3.123 -0.8634  0.6663 -0.0593
 7137SOL     OW28409   4.359   6.298   6.381 -0.3892 -0.1201 -0.0511
 7137SOL    HW128410   4.416   6.231   6.429 -0.8192 -0.1565  0.4087
 7137SOL    HW228411   4.276   6.254   6.348 -0.2524 -0.0174 -0.5398
 7138SOL     OW28412   3.705   1.137   5.129  0.0088 -0.2678  0.1764
 7138SOL    HW128413   3.736   1.198   5.056 -0.5830 -0.7040 -0.4393
 7138SOL    HW228414   3.784   1.109   5.184  0.7167 -1.2360 -1.2839
 7139SOL     OW28415   7.028   0.873   0.981 -0.1505 -0.2625 -0.3296
 7139SOL    HW128416   7.117   0.867   0.935  0.6353 -1.7898  1.3204
 7139SOL    HW228417   6.959   0.826   0.926  0.3250 -0.2033 -0.9839
 7140SOL     OW28418   5.645   4.395   1.190 -0.0576 -0.4334  0.6693
 7140SOL    HW128419   5.645   4.383   1.090  2.6228 -0.1197  0.5989
 7140SOL    HW228420   5.675   4.487   1.212 -0.4802 -0.5589  1.7880
 7141SOL     OW28421   3.547   1.891   6.281 -0.2661 -0.3264 -0.0924
 7141SOL    HW128422   3.556   1.791   6.283  1.5077 -0.1616  1.3182
 7141SOL    HW228423   3.637   1.932   6.264 -0.9846  1.0506 -0.6992
 7142SOL     OW28424   5.820   6.653   2.153 -0.2141 -0.4275 -0.1685
 7142SOL    HW128425   5.742   6.667   2.214  0.6416  0.1852  0.8077
 7142SOL    HW228426   5.837   6.555   2.142 -0.9537 -0.5600 -0.1958
 7143SOL     OW28427   0.197   4.815   0.514  0.0418  0.3303 -0.0689
 7143SOL    HW128428   0.147   4.900   0.527 -1.2787 -0.5302  0.6041
 7143SOL    HW228429   0.229   4.808   0.420  0.5082  1.7424 -0.0302
 7144SOL     OW28430   6.969   7.307   6.948 -0.4318  0.5071  0.0035
 7144SOL    HW128431   6.973   7.401   6.981  0.5029  1.0912 -1.7303
 7144SOL    HW228432   7.023   7.248   7.008 -1.6481  0.9068  1.5443
 7145SOL     OW28433   2.900   0.151   5.220 -0.5570 -0.2003 -0.0722
 7145SOL    HW128434   2.972   0.201   5.269  0.7276 -1.5081 -0.5807
 7145SOL    HW228435   2.929   0.136   5.125 -1.1453 -1.4565 -0.0553
 7146SOL     OW28436   6.742   4.040   1.688 -0.1936  0.2221 -0.0882
 7146SOL    HW128437   6.841   4.052   1.686  0.0432 -1.1637  1.6430
 7146SOL    HW228438   6.709   4.047   1.783 -2.0629  2.8374 -0.8811
 7147SOL     OW28439   6.100   1.883   2.863 -0.3910 -0.0885  0.2055
 7147SOL    HW128440   6.027   1.824   2.827 -0.0235 -0.2483 -0.2954
 7147SOL    HW228441   6.103   1.875   2.963 -1.4905  0.4342  0.2932
 7148SOL     OW28442   5.288   2.020   4.248 -0.3456 -0.0335 -0.0428
 7148SOL    HW128443   5.201   2.063   4.269  0.9368  1.8924  1.3893
 7148SOL    HW228444   5.346   2.018   4.329  0.7178 -1.9284 -0.7914
 7149SOL     OW28445   0.839   2.635   7.279 -0.3553  0.4254 -0.3842
 7149SOL    HW128446   0.749   2.624   7.236 -0.6558  0.0127  0.3297
 7149SOL    HW228447   0.874   2.727   7.261 -2.2541  1.6303  1.7534
 7150SOL     OW28448   3.234   5.924   1.654  0.3591  0.1441 -0.8752
 7150SOL    HW128449   3.219   6.003   1.595  1.1885 -0.1325 -1.4719
 7150SOL    HW228450   3.262   5.846   1.598  0.8567 -0.2011 -0.1463
 7151SOL     OW28451   0.082   4.371   1.798 -0.2822  0.1081 -0.0115
 7151SOL    HW128452   0.060   4.392   1.703 -1.7390  0.2045  0.3415
 7151SOL    HW228453   0.149   4.296   1.801 -0.8555 -0.4517 -1.0814
 7152SOL     OW28454   1.659   2.767   3.305 -0.1880  0.3861  0.2179
 7152SOL    HW128455   1.743   2.770   3.250 -1.9775  0.0554 -2.6842
 7152SOL    HW228456   1.596   2.699   3.266 -2.2772  1.4653  1.6032
 7153SOL     OW28457   1.535   7.330   6.079 -0.3828  0.1442  0.1589
 7153SOL    HW128458   1.476   7.309   6.157  1.4944 -0.6919  1.3807
 7153SOL    HW228459   1.563   7.426   6.084 -0.8635  0.2879  0.1046
 7154SOL     OW28460   5.872   3.923   6.272 -0.1382 -0.4986  0.1971
 7154SOL    HW128461   5.892   4.019   6.255  1.9500 -0.5166  2.3406
 7154SOL    HW228462   5.869   3.874   6.185 -0.8070  1.4170 -0.8824
 7155SOL     OW28463   5.207   6.188   2.628  0.1404 -0.0178  0.1365
 7155SOL    HW128464   5.140   6.160   2.559  0.4622 -1.0745  0.2435
 7155SOL    HW228465   5.237   6.108   2.680  0.2042  0.7038  1.2412
 7156SOL     OW28466   3.697   3.084   7.137  0.5817  0.4181 -0.1800
 7156SOL    HW128467   3.603   3.068   7.107 -0.0827  0.8888  1.5398
 7156SOL    HW228468   3.761   3.046   7.070 -0.8479 -1.6172 -0.4507
 7157SOL     OW28469   2.144   7.080   2.460  0.4056  0.5761 -0.0043
 7157SOL    HW128470   2.165   7.166   2.506  1.5173 -0.0289  0.6621
 7157SOL    HW228471   2.062   7.040   2.500  0.4342  0.8556  0.3382
 7158SOL     OW28472   3.294   6.730   1.556 -0.5399 -0.1778  0.2960
 7158SOL    HW128473   3.222   6.757   1.493 -1.1161  0.3453  1.1713
 7158SOL    HW228474   3.340   6.812   1.591 -0.3069 -0.4585  0.6475
 7159SOL     OW28475   2.955   5.073   4.244 -0.7429 -0.1561  0.3439
 7159SOL    HW128476   3.035   5.122   4.211  0.4967 -1.3213  1.5865
 7159SOL    HW228477   2.892   5.138   4.288 -0.1023  0.6157  0.1311
 7160SOL     OW28478   0.916   0.643   1.410 -0.5472 -0.1797  0.1571
 7160SOL    HW128479   0.911   0.547   1.436  1.0100  0.6174  3.7229
 7160SOL    HW228480   0.825   0.684   1.413 -1.0730 -1.2812 -0.4375
 7161SOL     OW28481   2.968   4.028   4.713 -0.2285 -0.4028 -0.0962
 7161SOL    HW128482   2.962   3.961   4.639  1.0025  0.5939 -1.1103
 7161SOL    HW228483   2.924   4.113   4.684  0.8676  0.2210  0.0404
 7162SOL     OW28484   4.981   4.511   5.875 -0.7584 -0.2723  0.2893
 7162SOL    HW128485   4.924   4.436   5.908  0.8766 -1.5827  0.2586
 7162SOL    HW228486   5.043   4.476   5.804  1.0076  0.7687  1.2796
 7163SOL     OW28487   3.776   1.389   7.024  0.1520  0.0279 -0.1767
 7163SOL    HW128488   3.764   1.343   6.936 -0.1005 -2.0692  0.9279
 7163SOL    HW228489   3.855   1.349   7.072 -1.4727 -0.8673  1.7958
 7164SOL     OW28490   3.937   0.814   0.257 -0.1408 -0.1539 -0.2060
 7164SOL    HW128491   3.983   0.821   0.169 -1.4097  1.0589 -0.7817
 7164SOL    HW228492   3.990   0.753   0.317  1.9557  0.8403 -0.9965
 7165SOL     OW28493   0.192   2.517   3.385  0.1219 -0.1539  0.2314
 7165SOL    HW128494   0.242   2.515   3.471 -1.6158  1.0303  1.2994
 7165SOL    HW228495   0.140   2.432   3.375 -0.8979  0.3472  1.1249
 7166SOL     OW28496   3.121   6.469   6.032 -0.6473 -0.2194 -0.0995
 7166SOL    HW128497   3.099   6.504   6.123 -2.0684  0.9345 -0.8863
 7166SOL    HW228498   3.173   6.538   5.981 -0.9178 -0.3904 -0.6090
 7167SOL     OW28499   1.379   0.240   6.999  0.0679 -0.1061 -0.2701
 7167SOL    HW128500   1.449   0.181   7.040  0.1144  0.6822  0.7818
 7167SOL    HW228501   1.402   0.256   6.903  1.1754 -0.1155 -0.0150
 7168SOL     OW28502   5.400   4.210   4.025 -0.0335  0.0274 -0.9011
 7168SOL    HW128503   5.416   4.290   3.966  1.3644  0.8533  0.5746
 7168SOL    HW228504   5.423   4.127   3.974  0.7707  0.7075 -1.6816
 7169SOL     OW28505   6.055   2.509   2.561 -0.0073 -0.2462 -0.0809
 7169SOL    HW128506   6.007   2.571   2.623 -1.2237  0.5884 -1.8292
 7169SOL    HW228507   6.012   2.419   2.564  0.5930 -0.5000  1.0622
 7170SOL     OW28508   5.412   5.927   7.154 -0.1478 -0.1982 -0.3408
 7170SOL    HW128509   5.381   5.833   7.166 -0.6485  0.3019  2.7196
 7170SOL    HW228510   5.374   5.984   7.227  1.1578  2.1286 -1.4263
 7171SOL     OW28511   0.871   5.832   4.497 -0.6071 -1.0892  0.4142
 7171SOL    HW128512   0.967   5.858   4.499 -0.5809 -1.1424 -0.1460
 7171SOL    HW228513   0.815   5.909   4.527 -0.4955 -0.5262 -0.7805
 7172SOL     OW28514   5.530   0.939   2.840  0.4074  0.3176 -0.4375
 7172SOL    HW128515   5.567   0.874   2.773  0.8350 -0.1800  0.2792
 7172SOL    HW228516   5.444   0.904   2.877  0.5133  0.2787 -0.2303
 7173SOL     OW28517   6.429   4.922   6.907 -0.1080  0.9095  0.2448
 7173SOL    HW128518   6.413   4.830   6.871  1.8185  0.7789 -0.3048
 7173SOL    HW228519   6.363   4.941   6.980  0.3057 -1.4200  1.2773
 7174SOL     OW28520   5.424   0.913   6.954 -0.0873 -0.2114 -0.2895
 7174SOL    HW128521   5.387   0.956   6.872 -2.7898 -2.3924 -0.2797
 7174SOL    HW228522   5.469   0.982   7.010 -1.7947  2.0483 -1.6341
 7175SOL     OW28523   2.292   5.500   7.179 -1.2092  0.1758  0.1530
 7175SOL    HW128524   2.355   5.422   7.177 -0.0595  1.0155  1.8959
 7175SOL    HW228525   2.198   5.467   7.183 -0.8145 -1.1061 -0.8791
 7176SOL     OW28526   2.520   5.075   0.893 -0.1530  0.0057  0.2037
 7176SOL    HW128527   2.585   5.145   0.923 -0.0944 -0.1653  0.4794
 7176SOL    HW228528   2.431   5.117   0.875  0.5743  0.5966 -2.1960
 7177SOL     OW28529   2.125   2.114   5.930 -0.4282  0.1998  0.2822
 7177SOL    HW128530   2.080   2.158   6.007 -0.7821  0.0310  0.1746
 7177SOL    HW228531   2.056   2.086   5.862 -0.5745 -3.1996  1.7032
 7178SOL     OW28532   3.641   6.296   5.375  0.4586 -0.2110  0.4956
 7178SOL    HW128533   3.718   6.232   5.364  1.4645  1.0090  0.3894
 7178SOL    HW228534   3.676   6.388   5.390 -1.0002  0.5627 -0.7944
 7179SOL     OW28535   0.958   1.307   7.295 -0.3551 -0.2759  0.4040
 7179SOL    HW128536   0.965   1.387   7.235 -1.2424 -0.6854 -0.2626
 7179SOL    HW228537   0.896   1.326   7.371 -1.0703 -0.5352 -0.1073
 7180SOL     OW28538   5.602   6.656   2.311  0.5642  0.2336 -0.4598
 7180SOL    HW128539   5.581   6.619   2.402 -0.8900  0.4395 -0.6962
 7180SOL    HW228540   5.591   6.755   2.313 -0.0568  0.1778 -1.0119
 7181SOL     OW28541   6.137   5.988   2.468 -0.1358 -0.0460 -0.4676
 7181SOL    HW128542   6.165   5.961   2.560 -0.9317  0.0007 -0.2047
 7181SOL    HW228543   6.176   6.077   2.446  1.4964 -0.8546 -0.8652
 7182SOL     OW28544   4.510   3.345   3.592 -0.5280  0.1956  0.5645
 7182SOL    HW128545   4.501   3.317   3.687  1.1261  1.1369  1.0268
 7182SOL    HW228546   4.427   3.321   3.541 -0.6124 -2.1229  1.7712
 7183SOL     OW28547   0.393   2.277   6.451  0.8850  0.2843  0.4191
 7183SOL    HW128548   0.436   2.232   6.373 -0.3428 -0.5342  0.2090
 7183SOL    HW228549   0.455   2.274   6.529  1.2889 -0.7540  0.0725
 7184SOL     OW28550   6.221   4.055   0.180  0.4718  0.8376 -0.1846
 7184SOL    HW128551   6.270   3.971   0.204  1.1166  0.3771 -2.9285
 7184SOL    HW228552   6.200   4.106   0.263 -0.6098 -2.3892  1.6274
 7185SOL     OW28553   5.926   6.222   4.648 -0.3584 -0.4843 -0.9321
 7185SOL    HW128554   5.867   6.150   4.684 -0.5194  0.8149  1.5572
 7185SOL    HW228555   5.875   6.308   4.644  0.2871 -0.1553 -2.3714
 7186SOL     OW28556   5.654   5.377   4.791 -0.6148 -0.2259 -0.1155
 7186SOL    HW128557   5.634   5.404   4.885  1.3867 -2.0305  0.8664
 7186SOL    HW228558   5.570   5.381   4.736 -1.7397  1.1141  1.6680
 7187SOL     OW28559   5.386   5.138   4.145  0.6433  0.0037  0.5999
 7187SOL    HW128560   5.418   5.069   4.211  0.3069  1.5533  2.3958
 7187SOL    HW228561   5.294   5.114   4.114  0.7768 -0.6958  0.7210
 7188SOL     OW28562   5.471   1.767   0.789  0.7218  0.1629 -0.3132
 7188SOL    HW128563   5.395   1.802   0.734 -0.6409 -2.8916 -0.4906
 7188SOL    HW228564   5.465   1.667   0.793  1.8872  0.1933  3.8186
 7189SOL     OW28565   4.247   6.160   3.499 -0.1693  0.5739 -0.5684
 7189SOL    HW128566   4.236   6.253   3.464  2.0413  0.5549 -1.3923
 7189SOL    HW228567   4.340   6.148   3.534 -0.8203 -0.9502  0.7193
 7190SOL     OW28568   1.604   7.343   4.174 -0.1625 -0.0058  0.2275
 7190SOL    HW128569   1.640   7.426   4.216  0.9017 -0.0291 -0.5982
 7190SOL    HW228570   1.664   7.315   4.099 -0.7204 -1.2961  0.2397
 7191SOL     OW28571   4.877   1.572   2.778  0.1011 -0.3776  0.9583
 7191SOL    HW128572   4.872   1.525   2.866 -3.6712 -1.0088  0.5140
 7191SOL    HW228573   4.820   1.654   2.780  0.8289  0.2011 -0.5825
 7192SOL     OW28574   0.690   2.926   0.721 -0.5479 -0.0359  0.2470
 7192SOL    HW128575   0.615   2.882   0.769 -1.0817  0.1016 -0.4418
 7192SOL    HW228576   0.697   3.022   0.750  0.4860 -0.5043  1.5966
 7193SOL     OW28577   1.482   3.054   3.582 -0.0575  0.2861  0.0192
 7193SOL    HW128578   1.386   3.071   3.603 -0.1022  0.8443 -0.6407
 7193SOL    HW228579   1.492   2.961   3.547 -0.4085  0.3411 -0.2319
 7194SOL     OW28580   2.461   2.510   0.440  0.2746 -0.1599 -0.0395
 7194SOL    HW128581   2.511   2.529   0.355  1.0105 -2.7931 -0.2287
 7194SOL    HW228582   2.417   2.421   0.434  0.5916 -0.5219  2.4592
 7195SOL     OW28583   3.056   6.953   5.370  0.0838 -0.3927 -0.0793
 7195SOL    HW128584   3.091   6.901   5.293  1.6278  1.4494 -0.6580
 7195SOL    HW228585   3.103   6.925   5.454  3.7271  2.6532 -0.9780
 7196SOL     OW28586   2.342   3.123   0.913  0.3944 -0.6720  0.3050
 7196SOL    HW128587   2.372   3.100   1.006  0.8823 -0.1209  0.2876
 7196SOL    HW228588   2.250   3.087   0.898  0.6368 -1.4603  0.7221
 7197SOL     OW28589   3.595   6.055   4.961 -0.2106  0.4264  0.5284
 7197SOL    HW128590   3.679   6.001   4.953 -1.2088 -1.4261  2.4001
 7197SOL    HW228591   3.559   6.073   4.869  0.9040 -0.8200 -0.1735
 7198SOL     OW28592   3.385   0.048   0.320  0.5223  0.0349  0.1480
 7198SOL    HW128593   3.424   0.067   0.410  0.7106  0.9281 -0.1168
 7198SOL    HW228594   3.434   0.100   0.251  0.9247 -1.3052 -0.5875
 7199SOL     OW28595   0.509   6.190   7.330  0.0968 -0.1657 -0.0603
 7199SOL    HW128596   0.568   6.246   7.272  0.5306 -0.0604  0.4837
 7199SOL    HW228597   0.413   6.211   7.310  0.2479  0.0551 -0.5567
 7200SOL     OW28598   6.653   6.207   6.253  0.4079 -0.4432 -0.2310
 7200SOL    HW128599   6.599   6.280   6.210  0.9295 -0.4191 -0.8622
 7200SOL    HW228600   6.751   6.226   6.240  0.5397 -1.6317 -1.0501
 7201SOL     OW28601   0.311   5.946   6.191 -0.3857 -0.3966 -0.0958
 7201SOL    HW128602   0.402   5.933   6.230 -0.6343  0.3167  0.7138
 7201SOL    HW228603   0.296   6.043   6.172 -0.6153 -0.6242 -1.1311
 7202SOL     OW28604   0.003   2.748   3.315 -0.2512 -0.8808  0.0792
 7202SOL    HW128605   0.029   2.819   3.380  0.5833  0.1255 -1.3311
 7202SOL    HW228606   0.083   2.692   3.293 -0.7726 -1.9099  0.7265
 7203SOL     OW28607   5.769   7.349   7.272  0.7706  0.0558  0.4110
 7203SOL    HW128608   5.805   7.389   7.188  0.6505 -0.1431  0.2663
 7203SOL    HW228609   5.836   7.286   7.311  0.7602  0.0263  0.3799
 7204SOL     OW28610   5.643   3.747   4.706 -0.1479 -0.5701 -0.0068
 7204SOL    HW128611   5.612   3.655   4.683 -0.1908 -0.4543 -0.4279
 7204SOL    HW228612   5.660   3.799   4.621  0.9259 -0.5421  0.2160
 7205SOL     OW28613   5.772   1.517   6.968  0.7020  0.3607  0.6591
 7205SOL    HW128614   5.711   1.480   7.038  0.0263  0.2701  0.0299
 7205SOL    HW228615   5.735   1.602   6.933  0.1325 -0.4755 -0.8176
 7206SOL     OW28616   7.177   5.580   5.069  0.5584  0.3362 -0.1971
 7206SOL    HW128617   7.081   5.562   5.043 -0.2279  1.5787  1.7601
 7206SOL    HW228618   7.231   5.497   5.056 -1.1638 -0.9041  0.3729
 7207SOL     OW28619   5.124   2.687   5.239  0.3953 -0.3077 -0.3323
 7207SOL    HW128620   5.038   2.642   5.216 -1.4671  2.9424  0.0655
 7207SOL    HW228621   5.161   2.647   5.323 -0.4925 -1.9965 -0.7290
 7208SOL     OW28622   7.106   2.194   3.896  0.0302  0.3436  0.3730
 7208SOL    HW128623   7.185   2.202   3.836  0.6550 -0.5034  1.0614
 7208SOL    HW228624   7.121   2.250   3.978  1.2624 -2.0782  1.8820
 7209SOL     OW28625   3.159   0.206   5.721 -0.0908 -0.2765  0.2297
 7209SOL    HW128626   3.210   0.268   5.662  0.2833 -0.3218  0.4994
 7209SOL    HW228627   3.119   0.258   5.797 -2.7848  0.2091 -1.4891
 7210SOL     OW28628   3.260   0.814   4.707  0.3139  0.2041 -0.9457
 7210SOL    HW128629   3.191   0.743   4.695  0.1095 -0.1286  1.8517
 7210SOL    HW228630   3.217   0.897   4.743  1.3127  0.0437  0.6865
 7211SOL     OW28631   3.467   0.523   3.234  0.1947  0.3727  0.0435
 7211SOL    HW128632   3.445   0.586   3.160 -1.7896  0.6134  0.8056
 7211SOL    HW228633   3.387   0.467   3.255  0.5686  0.6284  2.3123
 7212SOL     OW28634   7.168   3.507   2.596  0.0014  0.3041 -0.3102
 7212SOL    HW128635   7.095   3.542   2.537 -1.5257  0.3269  1.5389
 7212SOL    HW228636   7.168   3.407   2.593  0.9003  0.3365 -1.4948
 7213SOL     OW28637   5.465   5.953   6.093  0.3689 -0.2739 -0.5679
 7213SOL    HW128638   5.450   5.863   6.133  1.7343 -0.3212 -0.1387
 7213SOL    HW228639   5.416   6.022   6.147  0.8813 -0.5377  0.2368
 7214SOL     OW28640   5.232   4.298   1.049  0.6395  0.4238  0.0282
 7214SOL    HW128641   5.132   4.300   1.045  0.5378 -0.1720  1.7267
 7214SOL    HW228642   5.263   4.203   1.038  0.8913  0.3109  1.6434
 7215SOL     OW28643   3.759   2.658   2.648 -0.1090 -0.0885 -0.4145
 7215SOL    HW128644   3.761   2.758   2.645 -1.4016  0.0032  0.9096
 7215SOL    HW228645   3.794   2.627   2.737 -1.9461 -0.7080  0.1055
 7216SOL     OW28646   2.477   4.438   7.182 -0.6698  0.0830 -0.1287
 7216SOL    HW128647   2.400   4.374   7.178 -1.0229  0.3287  2.1247
 7216SOL    HW228648   2.553   4.401   7.130 -1.1935 -1.7646  0.3736
 7217SOL     OW28649   7.051   0.106   2.420  0.0916  0.7108  0.6063
 7217SOL    HW128650   7.016   0.074   2.509  0.6546  0.3705  0.7112
 7217SOL    HW228651   7.130   0.050   2.394  0.6421  1.5576  0.4428
 7218SOL     OW28652   3.580   6.069   1.393 -0.2678 -0.7029 -0.0298
 7218SOL    HW128653   3.663   6.125   1.380 -1.0100  0.4414  0.1084
 7218SOL    HW228654   3.584   5.990   1.332  1.6197 -1.4573  1.0238
 7219SOL     OW28655   2.751   3.952   1.146 -0.3413 -0.5261  0.4612
 7219SOL    HW128656   2.658   3.988   1.160  0.0080  0.2965  0.6525
 7219SOL    HW228657   2.747   3.852   1.142 -1.3972 -0.4414 -0.7478
 7220SOL     OW28658   4.449   6.608   3.415  0.0419 -0.1000 -0.0381
 7220SOL    HW128659   4.523   6.556   3.457  0.5116 -0.0649 -0.8081
 7220SOL    HW228660   4.479   6.642   3.326 -0.7406  0.3107 -0.1477
 7221SOL     OW28661   6.263   1.579   2.063 -0.1843 -0.2085  0.0023
 7221SOL    HW128662   6.350   1.536   2.087  0.1873 -0.5252 -1.8543
 7221SOL    HW228663   6.276   1.677   2.049  0.3876 -0.6377 -2.6683
 7222SOL     OW28664   4.231   0.374   2.708  0.2161  0.4001  0.0344
 7222SOL    HW128665   4.166   0.432   2.659  0.3641 -0.6423 -1.4066
 7222SOL    HW228666   4.265   0.423   2.789 -0.8356  1.7117 -0.3051
 7223SOL     OW28667   6.585   0.023   1.714  0.4991  0.1231 -0.1599
 7223SOL    HW128668   6.499  -0.008   1.673  0.0312 -0.0328  0.9259
 7223SOL    HW228669   6.586   0.123   1.718 -0.2859  0.0826  1.1981
 7224SOL     OW28670   3.618   3.646   2.526 -0.0053  0.6735 -0.1188
 7224SOL    HW128671   3.666   3.657   2.613  1.4406 -1.4248 -0.6127
 7224SOL    HW228672   3.547   3.577   2.535  0.7377 -0.2043 -0.7973
 7225SOL     OW28673   0.501   0.667   5.588  0.3455  0.6270 -0.1790
 7225SOL    HW128674   0.532   0.590   5.531  0.1951  0.4118  0.0293
 7225SOL    HW228675   0.543   0.660   5.679  0.6903  1.0444 -0.3047
 7226SOL     OW28676   3.454   5.498   4.011  0.0155 -0.0108 -0.5412
 7226SOL    HW128677   3.425   5.461   3.923 -1.1460 -1.4389  0.4058
 7226SOL    HW228678   3.545   5.538   4.003  0.4139 -1.1954 -2.1250
 7227SOL     OW28679   5.248   5.193   1.375 -0.5901 -0.1192 -0.1545
 7227SOL    HW128680   5.304   5.121   1.334 -0.3130  0.3491 -0.6004
 7227SOL    HW228681   5.190   5.235   1.305 -0.1307  0.6679 -0.0700
 7228SOL     OW28682   5.397   4.915   6.072  0.0719 -0.6575  0.4052
 7228SOL    HW128683   5.383   4.895   6.169  0.5334 -1.4670  0.3082
 7228SOL    HW228684   5.369   4.835   6.018 -0.2202 -0.1947 -0.1290
 7229SOL     OW28685   2.878   5.353   6.355 -0.2452 -0.4548  0.7352
 7229SOL    HW128686   2.859   5.451   6.343  0.4488 -0.3787  0.2106
 7229SOL    HW228687   2.811   5.313   6.418  0.2308  0.6279  1.9510
 7230SOL     OW28688   1.540   0.468   0.121  0.3366  0.0919 -0.3268
 7230SOL    HW128689   1.483   0.401   0.167 -1.5402  1.1508 -1.0415
 7230SOL    HW228690   1.487   0.512   0.048  2.0303  1.1876 -0.9243
 7231SOL     OW28691   0.110   7.041   5.887 -0.2547  0.1356  0.2828
 7231SOL    HW128692   0.168   7.089   5.820 -1.9078  0.6053 -0.8507
 7231SOL    HW228693   0.097   6.947   5.857  1.3900 -0.5108  1.4968
 7232SOL     OW28694   4.188   3.417   0.575  0.5535  0.9790 -0.0413
 7232SOL    HW128695   4.128   3.358   0.629  2.6363 -0.2934  0.9684
 7232SOL    HW228696   4.212   3.497   0.630 -0.0601  1.3836 -0.3655
 7233SOL     OW28697   5.722   2.002   0.370  0.4165 -0.5460 -1.1957
 7233SOL    HW128698   5.796   2.017   0.303  1.6336  0.2748  0.2992
 7233SOL    HW228699   5.690   2.091   0.403  2.8944 -0.9722  2.5942
 7234SOL     OW28700   3.869   0.332   0.783 -0.2078 -0.2080  0.1281
 7234SOL    HW128701   3.832   0.333   0.876 -0.3184 -1.5722  0.1068
 7234SOL    HW228702   3.816   0.394   0.725 -0.4657  0.2488  0.8489
 7235SOL     OW28703   0.340   2.556   3.611  0.4042  0.3287  0.5171
 7235SOL    HW128704   0.316   2.489   3.681 -3.1248  0.2445 -0.6733
 7235SOL    HW228705   0.312   2.647   3.642  0.2787  0.5065 -0.1105
 7236SOL     OW28706   1.157   4.468   3.517  0.5154  0.3563 -0.5261
 7236SOL    HW128707   1.081   4.403   3.516  0.3857  0.4704  1.0746
 7236SOL    HW228708   1.236   4.427   3.563  0.4392  1.2951  0.4865
 7237SOL     OW28709   6.500   6.650   1.226 -0.4596 -0.9364  0.0526
 7237SOL    HW128710   6.518   6.690   1.136 -0.2829 -0.4608  0.2951
 7237SOL    HW228711   6.492   6.724   1.293 -0.3272 -1.3055  0.4697
 7238SOL     OW28712   3.549   1.790   2.349 -0.0187  0.3768 -0.4227
 7238SOL    HW128713   3.639   1.766   2.386 -0.9589 -1.5571  0.6425
 7238SOL    HW228714   3.554   1.795   2.249  1.1540 -0.1644 -0.3941
 7239SOL     OW28715   1.933   6.126   7.205  0.1994 -0.4098 -0.7138
 7239SOL    HW128716   1.909   6.032   7.229  0.4335  0.3002  2.4702
 7239SOL    HW228717   2.019   6.151   7.249  0.2187  1.2551 -1.6515
 7240SOL     OW28718   6.905   6.454   7.044 -0.3115  0.6670 -0.8030
 7240SOL    HW128719   6.888   6.377   6.983 -1.8864  0.7545 -0.4899
 7240SOL    HW228720   6.821   6.507   7.056  0.4192  1.6702  0.0391
 7241SOL     OW28721   6.675   7.067   2.092 -0.4970 -0.2427 -0.1106
 7241SOL    HW128722   6.693   7.147   2.036  0.4275 -1.1652 -1.1637
 7241SOL    HW228723   6.746   7.059   2.163 -0.8146  0.0866  0.2464
 7242SOL     OW28724   6.756   3.237   7.062 -0.3074 -0.3814  0.6075
 7242SOL    HW128725   6.775   3.141   7.042  1.8511  0.0852  0.2327
 7242SOL    HW228726   6.723   3.282   6.978  1.7174 -0.0933 -0.0554
 7243SOL     OW28727   2.579   1.193   2.236 -0.0125 -0.3972  0.0925
 7243SOL    HW128728   2.551   1.225   2.326 -0.9356 -2.0203  0.4035
 7243SOL    HW228729   2.630   1.107   2.245  0.1874 -0.3898 -0.8963
 7244SOL     OW28730   4.690   5.965   3.420 -0.1763 -0.3136 -0.3333
 7244SOL    HW128731   4.673   5.888   3.482  1.0754 -0.5881 -0.3013
 7244SOL    HW228732   4.655   6.049   3.461 -0.3987 -0.6733  0.2255
 7245SOL     OW28733   6.302   0.839   1.990  0.0836 -0.3774  0.4028
 7245SOL    HW128734   6.358   0.769   2.034  0.6397 -0.4256 -0.3673
 7245SOL    HW228735   6.207   0.809   1.987 -0.4950  0.8931  4.1972
 7246SOL     OW28736   1.323   4.019   5.586 -0.1257  0.0731  0.3112
 7246SOL    HW128737   1.309   4.059   5.496 -1.8613 -0.3358  0.3640
 7246SOL    HW228738   1.256   4.057   5.650 -0.7786 -1.6964  0.7291
 7247SOL     OW28739   6.863   5.988   2.756 -0.3026  0.3259 -0.3060
 7247SOL    HW128740   6.896   6.016   2.846 -1.6344  0.5414  0.1309
 7247SOL    HW228741   6.806   5.906   2.766  1.3698 -0.9738 -1.2400
 7248SOL     OW28742   7.156   6.932   6.933 -0.1231  0.4312  0.0772
 7248SOL    HW128743   7.129   6.839   6.958  1.5067  0.1578  0.9698
 7248SOL    HW228744   7.255   6.941   6.945 -0.3322  2.4174  0.4682
 7249SOL     OW28745   5.505   1.470   1.500 -0.0511 -0.3368  0.1708
 7249SOL    HW128746   5.546   1.436   1.415  0.9680  0.4660  0.3289
 7249SOL    HW228747   5.458   1.557   1.482  0.5559  0.0677  0.5096
 7250SOL     OW28748   1.740   3.333   3.373  0.5747 -0.1531 -0.2693
 7250SOL    HW128749   1.807   3.405   3.357  0.2893 -0.3249 -2.3752
 7250SOL    HW228750   1.687   3.317   3.289 -1.7295 -0.4014  1.1885
 7251SOL     OW28751   6.179   4.700   0.695 -0.0035 -0.5494 -0.1794
 7251SOL    HW128752   6.147   4.625   0.754  2.1001 -1.1791  0.2129
 7251SOL    HW228753   6.242   4.758   0.747 -1.2861  1.2524 -0.6172
 7252SOL     OW28754   1.339   2.992   0.151 -0.4904 -0.1088  0.3306
 7252SOL    HW128755   1.313   2.938   0.071 -0.2424  0.2551  0.0011
 7252SOL    HW228756   1.300   2.951   0.234 -0.9802 -0.3294 -0.0100
 7253SOL     OW28757   6.497   0.045   0.257  0.0100  0.0915  0.4029
 7253SOL    HW128758   6.536   0.131   0.291  3.9602 -0.8049 -1.4954
 7253SOL    HW228759   6.510   0.040   0.158 -0.6734 -2.4217  0.4187
 7254SOL     OW28760   6.390   5.982   6.009 -0.0771 -0.2547 -0.2611
 7254SOL    HW128761   6.434   6.071   6.005  0.1286 -0.3515 -0.1902
 7254SOL    HW228762   6.453   5.912   5.975 -0.7249 -0.1925 -1.6323
 7255SOL     OW28763   6.766   3.239   6.588 -0.5200 -0.4821  0.1301
 7255SOL    HW128764   6.720   3.255   6.675  1.1909 -0.2656  1.0155
 7255SOL    HW228765   6.865   3.240   6.602 -0.2385 -2.2634 -1.4890
 7256SOL     OW28766   2.170   2.149   2.519 -0.1461 -0.1390 -0.1170
 7256SOL    HW128767   2.153   2.174   2.424 -0.6672  3.2275  0.8137
 7256SOL    HW228768   2.147   2.052   2.532  0.0160 -0.6842 -3.3975
 7257SOL     OW28769   3.608   2.891   4.693  0.4816 -0.5102  0.6791
 7257SOL    HW128770   3.574   2.982   4.672  2.3895 -0.1095 -0.7974
 7257SOL    HW228771   3.600   2.874   4.791  0.1877  1.2633  0.9763
 7258SOL     OW28772   0.130   4.664   3.523  0.1543 -0.2335 -0.0583
 7258SOL    HW128773   0.189   4.744   3.531 -2.1395  1.4021  1.1584
 7258SOL    HW228774   0.141   4.607   3.605 -1.6715  1.3256  1.3228
 7259SOL     OW28775   0.402   4.190   0.795  0.1054  0.4113  0.8024
 7259SOL    HW128776   0.435   4.169   0.703 -0.2372 -0.3117  0.8399
 7259SOL    HW228777   0.393   4.289   0.806 -1.6457  0.4334 -0.5691
 7260SOL     OW28778   4.377   0.619   0.902  0.2792 -0.6792  0.7282
 7260SOL    HW128779   4.362   0.533   0.951 -1.3791 -0.9396 -0.2005
 7260SOL    HW228780   4.465   0.616   0.855  0.9809 -1.2077  2.0627
 7261SOL     OW28781   1.702   1.791   1.221  0.1903  0.0036  0.5546
 7261SOL    HW128782   1.716   1.760   1.127  0.1404  1.3746  0.0798
 7261SOL    HW228783   1.720   1.716   1.285 -0.9751 -1.2649 -0.6117
 7262SOL     OW28784   5.044   0.006   2.359  0.1027 -0.4425  0.8118
 7262SOL    HW128785   5.000  -0.080   2.333 -0.2465 -0.7045  2.2057
 7262SOL    HW228786   5.048   0.067   2.280 -0.7880 -1.2639  0.1196
 7263SOL     OW28787   5.123   4.611   0.883  0.0220  0.1964  0.1248
 7263SOL    HW128788   5.185   4.564   0.820  0.1265  1.4187 -0.7269
 7263SOL    HW228789   5.141   4.582   0.976  1.3743 -0.0350 -0.1920
 7264SOL     OW28790   1.924   1.949   2.082  0.0785  0.6615  0.1962
 7264SOL    HW128791   1.946   1.987   2.172 -0.9926 -0.1832  0.8297
 7264SOL    HW228792   1.881   1.860   2.094  0.5132  0.2568 -1.1874
 7265SOL     OW28793   3.210   0.530   2.660  0.0249 -0.1975  0.0138
 7265SOL    HW128794   3.138   0.597   2.641 -0.5807 -0.7523  0.3386
 7265SOL    HW228795   3.237   0.536   2.756 -0.1156 -0.4915  0.0746
 7266SOL     OW28796   2.789   7.042   4.905 -0.7342 -0.5945 -0.3333
 7266SOL    HW128797   2.859   7.082   4.963  0.3248 -1.1855 -1.1957
 7266SOL    HW228798   2.715   7.007   4.962 -0.0694 -0.4809  0.6131
 7267SOL     OW28799   0.061   5.637   7.080  0.2783  0.4223 -0.1003
 7267SOL    HW128800   0.149   5.636   7.032  1.0425 -0.3898  1.2560
 7267SOL    HW228801   0.063   5.707   7.151  0.3978 -0.5864  0.9124
 7268SOL     OW28802   6.579   4.557   6.678  0.4371 -0.3205 -0.2929
 7268SOL    HW128803   6.563   4.529   6.773  1.5348  0.3802  0.1045
 7268SOL    HW228804   6.615   4.650   6.676 -2.3056  0.7566 -1.5704
 7269SOL     OW28805   6.935   2.737   6.064  1.0877  0.4939  0.1542
 7269SOL    HW128806   6.945   2.650   6.113 -0.9973 -0.0584 -0.3278
 7269SOL    HW228807   7.003   2.742   5.991 -0.2189 -1.7908 -1.2752
 7270SOL     OW28808   1.539   0.813   2.966 -0.2718  0.2601  0.1471
 7270SOL    HW128809   1.619   0.768   3.005 -2.5289 -2.9993  1.2318
 7270SOL    HW228810   1.528   0.785   2.871 -0.6768 -0.1271  0.3036
 7271SOL     OW28811   5.216   4.041   0.607 -0.3947  0.1716  0.4869
 7271SOL    HW128812   5.305   4.037   0.561 -0.7386 -1.0583 -0.0859
 7271SOL    HW228813   5.148   4.079   0.545 -0.5250  0.0006  0.5255
 7272SOL     OW28814   3.146   7.264   5.676 -0.1411 -0.3067 -0.1654
 7272SOL    HW128815   3.122   7.257   5.580  0.4612  1.5559 -0.4780
 7272SOL    HW228816   3.183   7.355   5.695 -0.8486 -0.4239  1.9676
 7273SOL     OW28817   2.555   4.090   5.154 -0.1416  0.1021 -0.2575
 7273SOL    HW128818   2.643   4.077   5.201 -0.6198  0.0621  0.6178
 7273SOL    HW228819   2.510   4.172   5.189 -0.7375 -0.2144 -0.2834
 7274SOL     OW28820   1.378   1.325   7.240 -0.4763  0.2348  0.2365
 7274SOL    HW128821   1.337   1.367   7.321  0.7909 -0.6718  1.3711
 7274SOL    HW228822   1.433   1.393   7.192  1.6413 -0.0538  2.1196
 7275SOL     OW28823   0.108   0.600   5.783 -0.0208 -0.6139 -0.2072
 7275SOL    HW128824   0.015   0.639   5.786  0.8106  1.4028  0.5718
 7275SOL    HW228825   0.170   0.667   5.741  1.3502 -1.3379  0.6473
 7276SOL     OW28826   2.152   4.579   1.904  0.0134  0.0192  0.3590
 7276SOL    HW128827   2.215   4.545   1.834  0.6518  0.3388  0.7756
 7276SOL    HW228828   2.170   4.532   1.991 -0.7384 -0.3344  0.3303
 7277SOL     OW28829   3.263   1.254   7.032 -0.7642  0.0819 -0.1758
 7277SOL    HW128830   3.323   1.191   7.082 -0.6157  0.9022  0.6927
 7277SOL    HW228831   3.318   1.320   6.982 -0.9082 -0.8476 -1.6015
 7278SOL     OW28832   2.513   6.647   0.173 -0.1309 -0.1100 -0.0870
 7278SOL    HW128833   2.521   6.746   0.170  2.7411 -0.3465 -1.5951
 7278SOL    HW228834   2.435   6.621   0.231  1.3058  2.9015  3.2993
 7279SOL     OW28835   2.635   5.592   4.099 -0.1003 -0.2640 -0.1445
 7279SOL    HW128836   2.542   5.564   4.123 -1.1354  3.6003  0.7052
 7279SOL    HW228837   2.644   5.591   3.999 -0.5447 -2.1217 -0.1850
 7280SOL     OW28838   2.869   7.062   1.263  0.1806 -0.5173  0.2518
 7280SOL    HW128839   2.861   6.962   1.261 -0.7191 -0.4519  0.4089
 7280SOL    HW228840   2.860   7.095   1.357 -1.5982 -0.1322 -0.0407
 7281SOL     OW28841   3.095   5.630   2.050  0.4058 -0.5080 -0.1477
 7281SOL    HW128842   3.193   5.624   2.072  0.1050 -0.3591  1.2937
 7281SOL    HW228843   3.048   5.678   2.123 -0.3183  2.0970 -2.2380
 7282SOL     OW28844   4.929   6.894   3.803  0.3079  0.0109  0.3577
 7282SOL    HW128845   4.962   6.988   3.809  0.7867 -0.1857  0.9077
 7282SOL    HW228846   4.838   6.887   3.844  0.4990  0.1282  0.8021
 7283SOL     OW28847   6.338   1.911   2.653 -0.4584  0.2675 -0.1705
 7283SOL    HW128848   6.263   1.873   2.706 -0.3153 -0.8140 -0.7424
 7283SOL    HW228849   6.312   2.001   2.618 -0.3499  1.2710  2.1874
 7284SOL     OW28850   3.530   0.242   3.997 -0.1330 -0.5782 -0.5174
 7284SOL    HW128851   3.498   0.203   4.084  0.8855 -0.7705 -0.2253
 7284SOL    HW228852   3.577   0.171   3.944  1.4481  0.1647 -0.1295
 7285SOL     OW28853   4.106   1.904   4.510 -0.0344 -0.2254  0.6864
 7285SOL    HW128854   4.106   1.870   4.604 -0.0565  1.5652  1.3630
 7285SOL    HW228855   4.199   1.931   4.484 -0.6475  3.1946  1.7185
 7286SOL     OW28856   0.287   5.482   5.880 -0.3839  0.0213  0.2917
 7286SOL    HW128857   0.300   5.521   5.789  0.7718 -0.4280  0.2633
 7286SOL    HW228858   0.288   5.555   5.948 -0.8228  0.3115 -0.0067
 7287SOL     OW28859   5.606   2.262   0.144 -0.9252  0.2087  1.0329
 7287SOL    HW128860   5.633   2.173   0.181 -1.8407 -0.7281 -0.4700
 7287SOL    HW228861   5.506   2.272   0.152 -1.0125  0.4254 -0.1708
 7288SOL     OW28862   2.437   4.466   0.472  0.3928  0.4943 -0.9124
 7288SOL    HW128863   2.347   4.453   0.430  0.4498 -1.1674 -0.5509
 7288SOL    HW228864   2.500   4.397   0.438  0.9983  0.4171  0.3392
 7289SOL     OW28865   5.018   6.188   3.650  0.1124  0.4822  1.0741
 7289SOL    HW128866   5.018   6.271   3.706  0.3824  0.7824  0.6296
 7289SOL    HW228867   4.983   6.209   3.559 -0.5646 -0.0610  1.2000
 7290SOL     OW28868   2.680   2.085   4.113  0.1466 -0.2703 -0.8073
 7290SOL    HW128869   2.608   2.031   4.157  0.4127 -0.0497 -0.1099
 7290SOL    HW228870   2.747   2.114   4.181 -0.1525  1.1902 -1.1203
 7291SOL     OW28871   5.002   3.801   6.025  0.5868 -0.2846 -0.3855
 7291SOL    HW128872   4.996   3.837   6.119  0.3149  2.1677 -1.2900
 7291SOL    HW228873   4.917   3.755   6.002  0.5749 -0.7308  0.5117
 7292SOL     OW28874   3.033   0.927   6.614 -0.0542  0.4251 -0.4356
 7292SOL    HW128875   3.112   0.868   6.604  0.8154  1.2682  1.3577
 7292SOL    HW228876   3.063   1.019   6.640 -1.5606  0.9640 -0.5566
 7293SOL     OW28877   6.142   3.494   1.155 -0.2236 -0.3754  0.0891
 7293SOL    HW128878   6.162   3.405   1.197 -0.2829 -0.6726 -0.5150
 7293SOL    HW228879   6.228   3.538   1.130 -0.0809  0.6531  2.2581
 7294SOL     OW28880   5.291   4.610   5.613  0.3133 -0.3045 -0.1082
 7294SOL    HW128881   5.297   4.522   5.659  0.2945 -0.7735 -0.9810
 7294SOL    HW228882   5.248   4.598   5.523  1.7919  0.3138 -0.9186
 7295SOL     OW28883   1.146   3.031   0.818 -0.3027  0.1566 -0.0501
 7295SOL    HW128884   1.086   2.960   0.781 -1.5343  0.3606  1.4929
 7295SOL    HW228885   1.163   3.014   0.915  0.2609  1.3785  0.0815
 7296SOL     OW28886   7.235   3.764   4.461  0.6173  0.0426 -0.6104
 7296SOL    HW128887   7.193   3.674   4.447  0.7287  0.0261 -0.8479
 7296SOL    HW228888   7.268   3.771   4.555 -2.5692  1.1739  0.4917
 7297SOL     OW28889   1.807   3.209   0.918  0.4072 -0.0672  0.2747
 7297SOL    HW128890   1.799   3.215   0.818  0.7496  0.6212  0.2811
 7297SOL    HW228891   1.894   3.165   0.941 -0.2747 -1.4257  0.2595
 7298SOL     OW28892   2.736   0.372   0.193  0.1090 -0.2774 -0.2820
 7298SOL    HW128893   2.691   0.287   0.220 -0.4944 -0.4960 -1.9339
 7298SOL    HW228894   2.834   0.364   0.209  0.2336 -1.8109 -1.7178
 7299SOL     OW28895   4.891   5.767   5.388  0.0618 -0.3105  0.6926
 7299SOL    HW128896   4.792   5.755   5.376  0.0193  1.1196 -0.6952
 7299SOL    HW228897   4.926   5.697   5.449 -1.6322 -1.5348  0.3143
 7300SOL     OW28898   0.297   6.263   1.852 -0.1959  0.0790 -0.1939
 7300SOL    HW128899   0.356   6.237   1.776  0.6170  0.8519  0.1639
 7300SOL    HW228900   0.212   6.209   1.849  0.3666 -0.7714 -0.9139
 7301SOL     OW28901   1.148   4.148   2.049  0.5487 -0.4255 -0.0975
 7301SOL    HW128902   1.096   4.069   2.017  0.1445  0.0158 -0.5446
 7301SOL    HW228903   1.171   4.206   1.971  1.9444 -0.7547  0.0716
 7302SOL     OW28904   4.874   5.444   5.203 -0.6358  0.0713 -0.1550
 7302SOL    HW128905   4.789   5.445   5.255  0.1166 -0.1146  1.0856
 7302SOL    HW228906   4.898   5.350   5.178  0.2856 -0.0924  1.2967
 7303SOL     OW28907   0.165   4.857   3.837  0.0650  0.5233 -0.3947
 7303SOL    HW128908   0.158   4.758   3.825 -0.6889  0.6296 -0.8686
 7303SOL    HW228909   0.254   4.889   3.805  0.8662 -0.1970  1.0851
 7304SOL     OW28910   4.804   3.582   5.070  0.4094  0.6347  0.0955
 7304SOL    HW128911   4.850   3.611   5.155 -0.8922 -0.6762  1.2673
 7304SOL    HW228912   4.731   3.647   5.048 -0.2532  0.1447  0.8291
 7305SOL     OW28913   5.057   6.093   6.128  0.8508  0.0886 -0.3147
 7305SOL    HW128914   4.958   6.097   6.132  0.8323  0.0576 -0.7224
 7305SOL    HW228915   5.088   6.004   6.163  0.8181  0.6137  1.0968
 7306SOL     OW28916   2.242   6.015   2.454 -0.2477  0.0307 -0.5158
 7306SOL    HW128917   2.281   5.946   2.516 -1.7188  0.4831  0.9329
 7306SOL    HW228918   2.143   6.016   2.464 -0.3858  1.0334 -1.9441
 7307SOL     OW28919   7.173   3.525   5.045 -0.3736  0.2427  0.6045
 7307SOL    HW128920   7.122   3.610   5.058 -1.4543 -0.2463 -0.3314
 7307SOL    HW228921   7.258   3.528   5.098  0.5173  2.6696 -0.9184
 7308SOL     OW28922   5.739   5.178   3.971  0.1984 -0.3490  0.3122
 7308SOL    HW128923   5.770   5.130   4.054  2.5734 -3.2665 -2.1452
 7308SOL    HW228924   5.647   5.149   3.948 -0.3945  0.3104  1.7808
 7309SOL     OW28925   2.388   4.160   0.288 -0.5022  0.3237  0.2472
 7309SOL    HW128926   2.478   4.187   0.321 -0.8051  0.1710  1.2062
 7309SOL    HW228927   2.317   4.216   0.331 -0.7831  1.4390 -1.6007
 7310SOL     OW28928   5.461   3.111   3.278  0.0264  0.2486  0.2078
 7310SOL    HW128929   5.374   3.161   3.279  1.3183  2.6194 -1.0579
 7310SOL    HW228930   5.464   3.052   3.197 -1.0517 -1.1087  1.1283
 7311SOL     OW28931   6.946   4.818   1.241 -0.0684 -0.8661  0.5726
 7311SOL    HW128932   7.013   4.747   1.264 -1.7536 -2.4995  0.5263
 7311SOL    HW228933   6.946   4.834   1.142  2.3347  1.2864  0.8662
 7312SOL     OW28934   1.020   3.913   6.767 -0.1982 -0.5117 -0.0415
 7312SOL    HW128935   1.027   3.959   6.678  0.5037 -2.1239 -0.8591
 7312SOL    HW228936   1.109   3.915   6.812 -0.6432  0.6133  0.7914
 7313SOL     OW28937   1.176   2.531   0.978 -0.5811 -0.3392 -0.0492
 7313SOL    HW128938   1.107   2.555   1.047  0.3336 -0.1388  0.8003
 7313SOL    HW228939   1.263   2.572   1.002 -0.4545  0.4859 -1.8117
 7314SOL     OW28940   2.188   4.923   1.961  0.0905 -1.3142 -0.2977
 7314SOL    HW128941   2.195   4.986   2.037  0.4924 -0.0530 -1.3678
 7314SOL    HW228942   2.176   4.830   1.996 -2.1070 -0.4915  1.2676
 7315SOL     OW28943   5.141   4.910   2.633  0.1092  0.6760 -0.3992
 7315SOL    HW128944   5.154   4.817   2.668 -0.2694  0.6609 -0.2977
 7315SOL    HW228945   5.177   4.915   2.540 -0.9799  0.0907 -0.8635
 7316SOL     OW28946   2.833   6.606   5.297  0.2305  0.5040 -0.1749
 7316SOL    HW128947   2.798   6.513   5.309 -0.5044  0.9440  1.2245
 7316SOL    HW228948   2.931   6.604   5.278  0.1374 -0.5754 -0.5171
 7317SOL     OW28949   3.561   6.295   5.095 -0.6006 -0.1661  0.2708
 7317SOL    HW128950   3.553   6.286   5.194 -3.5007 -0.5088  0.0684
 7317SOL    HW228951   3.587   6.207   5.055 -1.8208 -0.6603  0.5493
 7318SOL     OW28952   4.592   6.994   4.966 -0.0079 -0.3359 -0.2409
 7318SOL    HW128953   4.546   7.017   5.052 -0.1337  0.2888 -0.4724
 7318SOL    HW228954   4.525   6.955   4.903 -0.0579 -0.1273 -0.3139
 7319SOL     OW28955   5.186   1.155   1.014  0.0725  0.1637  0.1589
 7319SOL    HW128956   5.157   1.107   0.932  0.1045  0.8529 -0.2566
 7319SOL    HW228957   5.284   1.173   1.009  0.1634 -0.1997  0.5592
 7320SOL     OW28958   2.991   6.926   2.101 -0.6236 -0.0184 -0.0396
 7320SOL    HW128959   2.915   6.985   2.129 -1.1251  0.1987 -1.7958
 7320SOL    HW228960   3.077   6.978   2.108 -0.6524 -0.1659  1.6412
 7321SOL     OW28961   3.890   6.914   0.816 -0.1787  0.4331  0.0394
 7321SOL    HW128962   3.984   6.929   0.845 -0.7224 -2.2019  3.4691
 7321SOL    HW228963   3.882   6.825   0.771 -0.9191  0.9130 -0.7904
 7322SOL     OW28964   5.641   2.868   7.281  0.5603 -0.4464  0.4430
 7322SOL    HW128965   5.581   2.814   7.339 -0.9244  1.2004  0.4620
 7322SOL    HW228966   5.728   2.882   7.329 -0.1584 -0.2145  1.7117
 7323SOL     OW28967   6.876   0.364   0.298  0.4039  0.0868  0.4363
 7323SOL    HW128968   6.923   0.328   0.378 -1.1865  4.0399  3.3329
 7323SOL    HW228969   6.913   0.454   0.275 -1.0602  0.2133 -1.5354
 7324SOL     OW28970   4.324   4.650   4.810  0.0370  0.5773  0.2648
 7324SOL    HW128971   4.352   4.605   4.895 -1.5620 -1.4679 -0.2363
 7324SOL    HW228972   4.243   4.604   4.773  1.3241  0.7092 -2.9362
 7325SOL     OW28973   3.499   5.144   0.879  0.3696  0.1945 -0.1731
 7325SOL    HW128974   3.494   5.044   0.868  1.5265 -0.1300  1.9601
 7325SOL    HW228975   3.579   5.179   0.830 -0.5758  0.2258 -1.7309
 7326SOL     OW28976   7.355   2.695   5.092 -0.0839  0.0636  0.3524
 7326SOL    HW128977   7.382   2.771   5.152 -1.3168  0.7762  0.0129
 7326SOL    HW228978   7.338   2.730   5.000 -0.3661 -0.6736  0.1224
 7327SOL     OW28979   5.430   4.648   3.354  0.3585 -0.0829 -0.0639
 7327SOL    HW128980   5.393   4.735   3.322  2.1655 -0.0535 -2.2815
 7327SOL    HW228981   5.424   4.643   3.453 -1.0674  1.9587 -0.0178
 7328SOL     OW28982   2.322   2.725   3.210  0.0175  0.3148 -0.5364
 7328SOL    HW128983   2.245   2.769   3.256  0.1096  0.1192 -0.1903
 7328SOL    HW228984   2.401   2.787   3.211 -0.1095  0.4823 -0.8185
 7329SOL     OW28985   2.746   0.695   3.449 -0.3725  0.2159  0.1751
 7329SOL    HW128986   2.673   0.694   3.380  1.4456 -1.1680 -1.8077
 7329SOL    HW228987   2.808   0.772   3.431 -0.9589  0.9968  1.4532
 7330SOL     OW28988   4.184   2.799   4.670  0.4364  0.5208  0.1919
 7330SOL    HW128989   4.263   2.861   4.670  0.5476  0.3779  0.2892
 7330SOL    HW228990   4.205   2.717   4.617  0.1717  0.7119 -0.2113
 7331SOL     OW28991   1.613   0.852   1.655 -0.0474  0.1217 -0.0091
 7331SOL    HW128992   1.686   0.804   1.607  0.1144  0.6199 -0.2623
 7331SOL    HW228993   1.587   0.800   1.737  0.1687 -0.3614 -0.2455
 7332SOL     OW28994   4.715   1.626   3.115  0.1091 -0.2222  0.4687
 7332SOL    HW128995   4.775   1.549   3.091  0.0544  0.0837 -0.6912
 7332SOL    HW228996   4.716   1.693   3.041  1.4360  1.6850  2.1674
 7333SOL     OW28997   1.635   3.620   1.090  0.2059  0.4671  0.3602
 7333SOL    HW128998   1.582   3.617   1.175  0.3506  0.2756  0.4440
 7333SOL    HW228999   1.627   3.710   1.049 -1.1406  0.0958 -0.2332
 7334SOL     OW29000   4.938   4.421   1.059  0.3138 -0.4391  0.1649
 7334SOL    HW129001   4.911   4.506   1.013 -0.3491 -0.0217  1.2976
 7334SOL    HW229002   5.004   4.443   1.131  0.3212 -0.9105  0.2991
 7335SOL     OW29003   4.498   4.144   1.767  0.5527 -0.5787  0.0170
 7335SOL    HW129004   4.545   4.228   1.794  0.3349 -0.7457  0.9317
 7335SOL    HW229005   4.505   4.077   1.840  0.1725 -1.1333 -0.4501
 7336SOL     OW29006   3.750   4.679   4.296  0.7546 -0.1743 -0.4184
 7336SOL    HW129007   3.768   4.615   4.222 -1.5665 -1.5699  0.1550
 7336SOL    HW229008   3.835   4.700   4.344  2.1325  0.0400 -2.8765
 7337SOL     OW29009   6.937   4.612   0.700 -0.2181 -0.3776  0.7960
 7337SOL    HW129010   6.951   4.592   0.797 -1.2066  0.0367  1.0268
 7337SOL    HW229011   6.868   4.551   0.662 -1.0740  0.5896  0.7745
 7338SOL     OW29012   6.790   2.930   3.612 -0.2880 -0.0849 -0.2545
 7338SOL    HW129013   6.873   2.876   3.599  0.0139  0.2442  0.3173
 7338SOL    HW229014   6.751   2.912   3.702  1.6115  3.0551  1.3078
 7339SOL     OW29015   2.946   0.492   3.634 -0.2541  0.0339 -0.1113
 7339SOL    HW129016   3.011   0.539   3.695  0.8505 -0.4414 -0.9101
 7339SOL    HW229017   2.879   0.558   3.600  1.2642  1.0484 -1.1982
 7340SOL     OW29018   1.730   4.252   6.583  0.1784  0.2906 -0.1776
 7340SOL    HW129019   1.696   4.204   6.502  0.3630 -0.7628  0.3561
 7340SOL    HW229020   1.677   4.225   6.663  1.6043 -0.6180  0.4912
 7341SOL     OW29021   2.037   3.305   3.242  0.0411 -0.2970 -0.2223
 7341SOL    HW129022   1.996   3.261   3.161 -1.1129 -0.2031  0.3084
 7341SOL    HW229023   2.083   3.235   3.297 -1.1277 -0.7226  0.2200
 7342SOL     OW29024   0.727   4.118   3.405  0.5441  0.5237 -0.3616
 7342SOL    HW129025   0.696   4.095   3.497  1.3263 -0.5775 -0.3584
 7342SOL    HW229026   0.655   4.098   3.338  0.3943  0.2362 -0.1110
 7343SOL     OW29027   4.099   3.038   1.665 -0.1506  0.2473 -0.0187
 7343SOL    HW129028   4.002   3.024   1.643  0.1567  1.7657 -2.5927
 7343SOL    HW229029   4.151   2.958   1.635 -0.1887  0.8748 -1.8242
 7344SOL     OW29030   6.565   4.739   5.295  0.1230  0.0999 -0.0245
 7344SOL    HW129031   6.518   4.658   5.262  1.1525 -0.5070 -0.0396
 7344SOL    HW229032   6.581   4.802   5.219  0.1327 -0.1006 -0.1896
 7345SOL     OW29033   5.984   2.890   0.153  1.1148  0.2518  0.3112
 7345SOL    HW129034   5.953   2.796   0.137  2.0359 -0.3581  2.0084
 7345SOL    HW229035   6.038   2.921   0.075 -0.1912 -0.1908 -0.7891
 7346SOL     OW29036   5.320   2.556   5.787 -0.2569  0.0098  0.1295
 7346SOL    HW129037   5.223   2.537   5.773 -0.3821  1.5014 -1.2239
 7346SOL    HW229038   5.357   2.494   5.856 -2.5338  0.4581  1.8050
 7347SOL     OW29039   2.576   3.594   4.144 -0.0095  0.2081 -0.2077
 7347SOL    HW129040   2.572   3.498   4.173  0.3233  0.3275  0.2386
 7347SOL    HW229041   2.545   3.602   4.050  0.5919 -0.4333 -0.4592
 7348SOL     OW29042   0.250   7.262   7.098  0.5129  0.0031 -0.3272
 7348SOL    HW129043   0.349   7.271   7.105  1.1155 -2.6615 -3.9292
 7348SOL    HW229044   0.224   7.166   7.113 -1.7477  0.9104  2.1188
 7349SOL     OW29045   4.000   5.872   0.012  0.5692 -0.1613 -0.3112
 7349SOL    HW129046   4.032   5.844  -0.079 -0.6464 -0.8488 -0.5420
 7349SOL    HW229047   3.931   5.944   0.002 -1.7737 -2.3158 -0.1201
 7350SOL     OW29048   6.583   1.580   0.407  0.0215 -0.1709  0.3889
 7350SOL    HW129049   6.506   1.641   0.388  0.8275  0.7318 -0.0302
 7350SOL    HW229050   6.666   1.619   0.368  0.8939 -0.5862  1.8019
 7351SOL     OW29051   2.651   6.889   5.147  0.3076 -0.0485  0.0911
 7351SOL    HW129052   2.682   6.818   5.211  0.7084 -3.9171 -4.1513
 7351SOL    HW229053   2.554   6.876   5.128  0.4346  0.4461 -0.8862
 7352SOL     OW29054   5.357   5.170   6.071  0.3236  0.8641 -0.1505
 7352SOL    HW129055   5.431   5.212   6.124 -0.6009  1.2751  0.8357
 7352SOL    HW229056   5.365   5.070   6.077 -0.0885  0.8954  1.2569
 7353SOL     OW29057   4.688   5.438   4.301  0.2544 -0.2840 -0.7902
 7353SOL    HW129058   4.660   5.533   4.312  0.4530 -0.4636  1.4897
 7353SOL    HW229059   4.787   5.431   4.308  0.0236 -1.0428  2.4881
 7354SOL     OW29060   4.687   1.478   4.640  0.3600 -0.3789  0.1774
 7354SOL    HW129061   4.679   1.514   4.547  1.4007 -0.5406  0.0221
 7354SOL    HW229062   4.672   1.552   4.705 -0.6009 -0.3097 -0.1096
 7355SOL     OW29063   0.798   4.489   6.690  0.1550 -0.1839 -0.0490
 7355SOL    HW129064   0.761   4.480   6.597 -1.8992 -2.4831  0.9355
 7355SOL    HW229065   0.723   4.488   6.756  1.7139 -0.4366  1.7615
 7356SOL     OW29066   3.146   2.774   5.151  0.0142 -0.1975 -0.1492
 7356SOL    HW129067   3.054   2.736   5.139 -0.4993  0.9317  0.1344
 7356SOL    HW229068   3.179   2.808   5.064  0.9652 -2.3583 -0.6508
 7357SOL     OW29069   5.847   3.533   0.223  0.1583  0.1006 -0.2390
 7357SOL    HW129070   5.850   3.502   0.318 -0.0291 -1.7456 -0.8100
 7357SOL    HW229071   5.755   3.523   0.187  0.1682  1.0479 -0.5428
 7358SOL     OW29072   4.599   5.938   4.731 -0.4889  0.3070 -0.2290
 7358SOL    HW129073   4.696   5.959   4.743 -0.7028  1.3900 -0.3002
 7358SOL    HW229074   4.582   5.842   4.754  0.8442 -0.2927 -1.6681
 7359SOL     OW29075   4.616   5.008   2.883  0.0580 -0.5597 -0.5737
 7359SOL    HW129076   4.669   5.038   2.804  0.0508 -2.6391 -1.4015
 7359SOL    HW229077   4.525   5.050   2.880  0.6777  0.8080 -0.6617
 7360SOL     OW29078   0.500   3.962   5.134  0.1863  0.1035 -0.4516
 7360SOL    HW129079   0.582   3.904   5.136  0.0381 -0.0690  1.3067
 7360SOL    HW229080   0.527   4.056   5.116  0.5420 -0.3034 -2.1454
 7361SOL     OW29081   1.191   3.395   3.351  0.4862 -0.1083  0.7988
 7361SOL    HW129082   1.200   3.461   3.425  2.0948  1.5753 -0.8469
 7361SOL    HW229083   1.273   3.338   3.346 -0.1395 -1.0539  1.0772
 7362SOL     OW29084   4.603   0.378   6.021 -0.4421  0.1290 -0.2993
 7362SOL    HW129085   4.659   0.335   6.092  1.4211  1.5453 -0.8719
 7362SOL    HW229086   4.659   0.395   5.940 -2.0697  0.3077 -1.4083
 7363SOL     OW29087   3.905   5.082   6.842  0.1859  0.1675  0.1495
 7363SOL    HW129088   3.836   5.071   6.771 -0.6135  1.1639  0.7509
 7363SOL    HW229089   3.860   5.098   6.930  1.1651 -0.8969  0.8552
 7364SOL     OW29090   4.518   0.267   0.855  0.3664  0.0507  0.0664
 7364SOL    HW129091   4.455   0.196   0.885  0.3506  0.2449  0.4947
 7364SOL    HW229092   4.479   0.314   0.776 -0.5171  0.8602  0.9674
 7365SOL     OW29093   1.219   4.102   5.354 -0.4146  0.5850 -0.3886
 7365SOL    HW129094   1.163   4.019   5.361  2.0721 -0.8919  2.8363
 7365SOL    HW229095   1.166   4.181   5.385 -1.1626 -0.5984  1.4154
 7366SOL     OW29096   1.074   5.411   0.434  0.1744  0.0238  0.0718
 7366SOL    HW129097   1.132   5.363   0.369  0.5359  0.8756 -0.2483
 7366SOL    HW229098   0.999   5.352   0.462 -1.4090  0.4556 -3.0035
 7367SOL     OW29099   1.959   2.509   4.511 -0.8378  0.1973  0.3699
 7367SOL    HW129100   1.881   2.485   4.568 -1.6302  0.9250 -0.3870
 7367SOL    HW229101   2.031   2.441   4.523 -1.3241 -0.1146  1.5854
 7368SOL     OW29102   6.683   5.237   3.007 -0.1800  0.1131  0.1712
 7368SOL    HW129103   6.718   5.157   2.958  2.3771  0.2669  1.6024
 7368SOL    HW229104   6.750   5.312   3.000 -1.1033  1.0819  1.4108
 7369SOL     OW29105   5.131   1.351   3.000  0.1841 -0.3624 -0.2800
 7369SOL    HW129106   5.175   1.264   3.020 -0.9811 -0.8387  0.2743
 7369SOL    HW229107   5.172   1.391   2.918  0.9812 -1.2482 -0.3212
 7370SOL     OW29108   4.770   3.055   4.729  0.4030  0.1991 -0.2378
 7370SOL    HW129109   4.756   2.978   4.666  0.3517  1.8215 -2.2607
 7370SOL    HW229110   4.854   3.103   4.704  0.3835  0.8701  0.9594
 7371SOL     OW29111   7.112   3.088   3.405  0.0578 -0.0495  0.5337
 7371SOL    HW129112   7.055   3.042   3.337 -0.5487  1.3798  0.0571
 7371SOL    HW229113   7.103   3.041   3.493 -0.5577 -0.8272  0.0680
 7372SOL     OW29114   5.226   4.378   5.314  0.2922 -0.1618 -0.1810
 7372SOL    HW129115   5.314   4.345   5.350  0.2170 -0.1865 -0.0170
 7372SOL    HW229116   5.240   4.422   5.226  0.6830  1.1261  0.5125
 7373SOL     OW29117   6.129   2.776   2.959  0.1825  0.2348  0.0403
 7373SOL    HW129118   6.131   2.862   3.011  0.9335  0.4860 -0.3865
 7373SOL    HW229119   6.092   2.703   3.016 -3.1575  1.4266 -0.5090
 7374SOL     OW29120   2.244   7.038   0.506  0.6045 -0.4512  0.0805
 7374SOL    HW129121   2.318   7.104   0.513  0.7211 -0.1665 -2.9890
 7374SOL    HW229122   2.156   7.082   0.528  0.9488  0.0801  0.3937
 7375SOL     OW29123   1.761   1.983   0.853  0.7364  0.2727  0.2700
 7375SOL    HW129124   1.687   2.038   0.891  2.0898  2.2003  0.1768
 7375SOL    HW229125   1.833   1.971   0.921  0.2545 -1.8226  0.4538
 7376SOL     OW29126   6.302   1.973   7.123  0.8095  0.4084 -0.7731
 7376SOL    HW129127   6.263   1.915   7.195  1.3520  1.3596  0.3046
 7376SOL    HW229128   6.397   1.946   7.107  0.7020  0.2273 -1.0969
 7377SOL     OW29129   1.313   1.062   3.958 -0.0372  0.3026  0.4299
 7377SOL    HW129130   1.356   1.017   3.880  0.3642  0.9931  0.2402
 7377SOL    HW229131   1.340   1.016   4.043 -0.5018 -0.4684  0.1619
 7378SOL     OW29132   4.766   5.503   3.158 -0.6769 -0.4190 -0.4765
 7378SOL    HW129133   4.727   5.554   3.082 -1.1099 -1.7204 -1.1476
 7378SOL    HW229134   4.723   5.412   3.163  0.2033 -0.7942  0.5686
 7379SOL     OW29135   6.580   5.187   3.273 -0.4681  0.1182 -0.1552
 7379SOL    HW129136   6.485   5.157   3.272 -0.3909 -0.1347 -0.0733
 7379SOL    HW229137   6.617   5.183   3.180 -0.7353  0.8641 -0.2957
 7380SOL     OW29138   6.538   6.892   1.399 -0.2845 -0.2250 -0.4589
 7380SOL    HW129139   6.465   6.846   1.450 -0.7665  0.7740 -0.2352
 7380SOL    HW229140   6.617   6.906   1.459  0.3543 -1.8738 -0.8735
 7381SOL     OW29141   6.043   0.449   1.125  0.6010  0.2619  0.2366
 7381SOL    HW129142   5.953   0.481   1.152  0.2694 -0.6173  0.1860
 7381SOL    HW229143   6.041   0.349   1.112  1.8510  0.0744  1.3347
 7382SOL     OW29144   4.705   0.854   7.126 -0.1140 -0.0231 -0.1533
 7382SOL    HW129145   4.725   0.905   7.043  0.9259  2.8916  1.8272
 7382SOL    HW229146   4.789   0.837   7.177 -0.9191 -0.4429  1.0695
 7383SOL     OW29147   3.950   5.515   6.041  0.1095 -0.1229  0.0953
 7383SOL    HW129148   4.030   5.457   6.054  0.9755  0.2978 -2.8920
 7383SOL    HW229149   3.870   5.458   6.026  0.4984 -0.5454 -0.3996
 7384SOL     OW29150   6.112   2.283   6.940 -0.2098 -0.8187  0.3603
 7384SOL    HW129151   6.212   2.277   6.949  0.0704 -0.5685 -2.1883
 7384SOL    HW229152   6.086   2.260   6.847 -2.3915  0.8276  0.5337
 7385SOL     OW29153   3.558   1.195   7.129 -0.9190  0.6805 -0.2458
 7385SOL    HW129154   3.652   1.227   7.139 -0.3324 -1.0868  0.1344
 7385SOL    HW229155   3.499   1.243   7.194  0.4650 -1.0341  2.3695
 7386SOL     OW29156   3.698   5.257   3.987  0.0090 -0.1393  0.0166
 7386SOL    HW129157   3.770   5.313   4.028  1.7181 -0.5158 -2.3237
 7386SOL    HW229158   3.627   5.239   4.054  0.6547  2.7227  1.5500
 7387SOL     OW29159   3.521   5.810   5.573  0.2664 -0.2018  0.3026
 7387SOL    HW129160   3.570   5.871   5.511  1.0201 -0.4554  0.6404
 7387SOL    HW229161   3.432   5.849   5.594  0.4985  0.4882  0.0302
 7388SOL     OW29162   1.753   4.284   4.340  0.0362 -0.4499  0.1178
 7388SOL    HW129163   1.672   4.294   4.398  0.2816  0.3863  0.3311
 7388SOL    HW229164   1.747   4.349   4.264  2.5539  2.7920  2.5363
 7389SOL     OW29165   2.515   7.025   7.225  0.6681 -0.2810 -0.2544
 7389SOL    HW129166   2.433   7.082   7.234  0.4291 -0.3771 -1.7358
 7389SOL    HW229167   2.588   7.080   7.185  1.0960 -0.4230  0.3280
 7390SOL     OW29168   0.029   6.474   0.069 -0.5566  0.3558 -0.3921
 7390SOL    HW129169   0.059   6.466   0.164 -1.1078 -0.6117 -0.2969
 7390SOL    HW229170   0.012   6.570   0.047 -0.7081  0.5519  0.5741
 7391SOL     OW29171   0.930   1.356   3.493  0.3758  0.2737 -0.2787
 7391SOL    HW129172   0.976   1.417   3.557 -0.1237  0.9659 -0.5668
 7391SOL    HW229173   0.970   1.265   3.498 -0.0005  0.1843  1.3982
 7392SOL     OW29174   0.012   3.532   5.216 -0.3385  0.2074  0.0771
 7392SOL    HW129175   0.020   3.630   5.234 -1.5328 -0.1752  2.9142
 7392SOL    HW229176   0.104   3.494   5.202  0.2309  1.4969  0.1765
 7393SOL     OW29177   0.104   2.397   1.877 -0.1919 -0.4069  0.5454
 7393SOL    HW129178   0.110   2.354   1.788  1.7435  0.0676  0.4169
 7393SOL    HW229179   0.099   2.327   1.948  0.3839 -0.8158  0.1870
 7394SOL     OW29180   2.255   3.598   5.197 -0.0093  0.0269  0.3534
 7394SOL    HW129181   2.292   3.691   5.196  0.1539  0.0192  2.3570
 7394SOL    HW229182   2.268   3.559   5.288 -1.4120 -1.4165 -0.0498
 7395SOL     OW29183   1.264   3.388   4.082 -0.1969  0.1161 -0.2659
 7395SOL    HW129184   1.351   3.346   4.057 -0.7633 -0.6496 -1.0112
 7395SOL    HW229185   1.234   3.351   4.170 -2.0630 -3.2899 -2.1987
 7396SOL     OW29186   2.065   0.605   7.238  0.6064 -0.0219 -0.4405
 7396SOL    HW129187   2.093   0.699   7.220  1.9362 -0.4493 -0.6304
 7396SOL    HW229188   2.092   0.579   7.331 -2.3002  0.7061  0.6849
 7397SOL     OW29189   2.593   2.420   4.344 -0.5504  0.3119  0.0976
 7397SOL    HW129190   2.587   2.482   4.265 -2.2184 -0.6708 -0.5687
 7397SOL    HW229191   2.523   2.445   4.411 -0.4763 -0.1447  0.3458
 7398SOL     OW29192   5.157   6.879   7.147  0.1578  0.2010  0.1514
 7398SOL    HW129193   5.144   6.942   7.223  1.0837  1.7299 -0.9378
 7398SOL    HW229194   5.076   6.880   7.089  0.9125  1.8696 -0.9153
 7399SOL     OW29195   4.829   6.290   5.963  0.0377  0.2291  0.5511
 7399SOL    HW129196   4.877   6.333   6.039  2.2034 -1.1774  0.0262
 7399SOL    HW229197   4.864   6.325   5.877 -0.2433 -0.4407  0.1564
 7400SOL     OW29198   6.055   0.448   0.335  0.0856 -0.2466 -0.4615
 7400SOL    HW129199   5.963   0.410   0.325  0.0822  0.1165 -1.9366
 7400SOL    HW229200   6.099   0.452   0.245  1.7918 -1.0215  0.3310
 7401SOL     OW29201   5.532   7.270   2.196 -0.0770 -0.3808  0.1851
 7401SOL    HW129202   5.502   7.187   2.150 -0.9329  0.5329 -0.9377
 7401SOL    HW229203   5.481   7.349   2.160  0.9327  0.6711  1.0071
 7402SOL     OW29204   2.782   1.163   0.146  0.4164 -0.3135 -1.0411
 7402SOL    HW129205   2.834   1.090   0.190 -0.5524 -0.5162 -0.2197
 7402SOL    HW229206   2.845   1.226   0.100  1.3799 -0.5758 -0.0911
 7403SOL     OW29207   5.660   7.126   6.968 -0.1579  0.0324 -0.9882
 7403SOL    HW129208   5.620   7.063   7.034 -1.8546  0.2921 -1.7385
 7403SOL    HW229209   5.760   7.125   6.977 -0.2670 -1.3746  0.2445
 7404SOL     OW29210   6.398   3.051   1.206 -0.0503  0.1507  0.6949
 7404SOL    HW129211   6.436   3.122   1.265  0.8178  0.0265  0.2909
 7404SOL    HW229212   6.411   3.077   1.110  0.2757 -0.5554  0.5447
 7405SOL     OW29213   6.256   1.128   0.881  0.2230 -0.6685 -0.3887
 7405SOL    HW129214   6.343   1.143   0.929 -0.2120 -1.1349  0.5501
 7405SOL    HW229215   6.198   1.069   0.936 -0.9190  0.1093 -0.7579
 7406SOL     OW29216   4.119   3.679   6.721  0.4407 -0.1597  0.1943
 7406SOL    HW129217   4.199   3.706   6.774 -0.0993  2.0824 -0.1098
 7406SOL    HW229218   4.051   3.751   6.723 -1.5130 -1.9475  0.2617
 7407SOL     OW29219   0.934   2.201   0.520  0.1653  0.3150  0.1916
 7407SOL    HW129220   1.009   2.210   0.585  1.1551 -0.4957 -0.8238
 7407SOL    HW229221   0.879   2.121   0.542  0.4036  0.1353  0.1304
 7408SOL     OW29222   6.977   7.163   0.827  0.2014  0.1602  0.0728
 7408SOL    HW129223   6.882   7.174   0.858  1.0032  1.3004  2.2402
 7408SOL    HW229224   7.038   7.161   0.906  1.9371 -1.4300 -1.2495
 7409SOL     OW29225   5.712   4.451   0.251 -0.1414  0.0373  0.2306
 7409SOL    HW129226   5.685   4.399   0.332  0.2080  0.7933  0.8379
 7409SOL    HW229227   5.669   4.541   0.253  0.3897  0.3046 -0.0893
 7410SOL     OW29228   5.350   6.271   2.278  0.2501 -0.1376 -0.7334
 7410SOL    HW129229   5.371   6.188   2.329 -0.9846  1.1849  2.0673
 7410SOL    HW229230   5.434   6.318   2.253  0.9172 -1.6494 -1.3759
 7411SOL     OW29231   4.639   0.778   6.463 -0.3214  0.4190 -0.0241
 7411SOL    HW129232   4.581   0.708   6.422  0.2704  0.2989 -0.6547
 7411SOL    HW229233   4.627   0.865   6.414  1.8177 -0.1943 -1.6958
 7412SOL     OW29234   0.289   4.810   0.930  0.3185  0.5028  0.0293
 7412SOL    HW129235   0.340   4.852   1.005  0.0070 -0.0556  0.5538
 7412SOL    HW229236   0.299   4.866   0.848 -1.1927  2.3287  1.0647
 7413SOL     OW29237   2.466   7.139   3.061  0.0993 -0.1240 -0.1398
 7413SOL    HW129238   2.469   7.143   3.161  0.5637  0.3916 -0.1752
 7413SOL    HW229239   2.517   7.059   3.030  0.1689 -0.1435  0.0228
 7414SOL     OW29240   5.714   7.289   2.399 -0.8974 -0.0316 -0.3436
 7414SOL    HW129241   5.679   7.333   2.482  0.1150  0.6557 -0.2671
 7414SOL    HW229242   5.639   7.274   2.334 -1.5591  0.1266  0.3829
 7415SOL     OW29243   5.743   1.593   0.894 -0.5116 -0.7975  0.1290
 7415SOL    HW129244   5.651   1.554   0.883 -0.3729 -0.6992 -1.5282
 7415SOL    HW229245   5.800   1.565   0.817  1.5413 -2.6909  2.2402
 7416SOL     OW29246   0.939   3.252   2.641 -0.3346  0.1647 -0.1004
 7416SOL    HW129247   0.854   3.289   2.679 -1.2189 -1.3741 -0.5249
 7416SOL    HW229248   0.948   3.156   2.669  1.4903  0.4469  0.2972
 7417SOL     OW29249   1.896   1.877   1.699 -0.0664  0.3822  0.0678
 7417SOL    HW129250   1.884   1.888   1.600  1.7293  0.1521 -0.1777
 7417SOL    HW229251   1.900   1.968   1.742 -0.2163  0.4881 -0.1409
 7418SOL     OW29252   5.591   2.639   5.574  0.5954  0.3375 -0.1387
 7418SOL    HW129253   5.512   2.696   5.595  0.7172 -0.3236  2.2734
 7418SOL    HW229254   5.674   2.693   5.585  0.5927  0.3642 -0.2500
 7419SOL     OW29255   6.994   4.100   2.477 -0.0875 -0.1706  0.1919
 7419SOL    HW129256   7.009   4.186   2.527  0.7340 -0.1490 -0.0903
 7419SOL    HW229257   6.896   4.079   2.477 -0.0483 -0.5539  2.4489
 7420SOL     OW29258   3.611   2.759   4.961 -0.4226  0.1863 -0.2321
 7420SOL    HW129259   3.543   2.698   5.000 -0.1702 -0.9008 -1.4345
 7420SOL    HW229260   3.703   2.724   4.980 -0.2188  1.0042  0.3543
 7421SOL     OW29261   7.261   1.506   0.644  0.2069 -0.7206  0.2766
 7421SOL    HW129262   7.177   1.534   0.598  1.2292  1.2624 -0.4426
 7421SOL    HW229263   7.243   1.426   0.701 -1.9277 -0.9269 -0.6547
 7422SOL     OW29264   3.489   6.425   2.036  0.2764 -0.2547  0.3163
 7422SOL    HW129265   3.413   6.476   2.075  0.2163  0.5818 -0.8559
 7422SOL    HW229266   3.507   6.458   1.944  2.4693  0.0086  0.8060
 7423SOL     OW29267   2.723   5.518   2.631  0.1111  0.3081 -0.0664
 7423SOL    HW129268   2.659   5.524   2.707 -1.1090  1.5397 -1.1807
 7423SOL    HW229269   2.692   5.447   2.567  1.0546 -0.6199  0.4770
 7424SOL     OW29270   0.951   5.086   2.912  0.2903  0.4577  0.0660
 7424SOL    HW129271   0.915   5.009   2.965 -0.3118  0.7081  0.0207
 7424SOL    HW229272   0.915   5.083   2.819 -0.1728  1.0982  0.2176
 7425SOL     OW29273   4.875   4.017   2.938 -0.0041 -0.2979  0.4466
 7425SOL    HW129274   4.820   4.021   2.854 -0.3309  1.7526  0.7244
 7425SOL    HW229275   4.953   4.079   2.929 -1.2421  1.6197  2.4762
 7426SOL     OW29276   5.051   5.504   3.881  0.2886 -0.0646 -0.4659
 7426SOL    HW129277   5.134   5.550   3.851  0.5948  0.0312  0.5056
 7426SOL    HW229278   5.026   5.537   3.972 -1.2071  0.4243 -1.0447
 7427SOL     OW29279   4.731   2.753   0.701 -0.3003 -0.1973  0.8067
 7427SOL    HW129280   4.670   2.684   0.661  0.0422 -0.1047  0.1053
 7427SOL    HW229281   4.732   2.744   0.800  0.6669 -2.0128  0.6647
 7428SOL     OW29282   3.978   2.832   5.510 -0.3440  0.3792  0.3033
 7428SOL    HW129283   4.078   2.834   5.501 -0.4144 -1.1016 -1.1113
 7428SOL    HW229284   3.945   2.738   5.495 -2.0844  1.1847 -1.1268
 7429SOL     OW29285   3.612   2.162   1.881  0.1445 -0.1844  0.3396
 7429SOL    HW129286   3.616   2.185   1.784  0.5456  1.9945  0.8566
 7429SOL    HW229287   3.538   2.097   1.896 -1.1650  0.9090 -1.1568
 7430SOL     OW29288   2.906   5.806   5.116 -0.3516 -0.1346 -0.1949
 7430SOL    HW129289   2.931   5.902   5.120  0.4824 -0.1509 -3.4614
 7430SOL    HW229290   2.980   5.751   5.155 -0.5468  0.4996  1.0826
 7431SOL     OW29291   6.457   1.677   2.541 -0.0274  0.1716  0.2508
 7431SOL    HW129292   6.427   1.766   2.576  1.2366  1.4340 -1.7880
 7431SOL    HW229293   6.551   1.660   2.571  0.0314 -0.0831 -0.0813
 7432SOL     OW29294   1.465   3.784   5.893 -0.1047 -0.2579  0.5171
 7432SOL    HW129295   1.442   3.776   5.796 -0.4885  1.0277  0.4889
 7432SOL    HW229296   1.405   3.725   5.947 -0.6355 -0.1195  0.0742
 7433SOL     OW29297   7.199   0.845   2.060  0.3149  0.0358  0.2264
 7433SOL    HW129298   7.232   0.752   2.080  0.1475 -0.4134 -1.5372
 7433SOL    HW229299   7.268   0.894   2.007  0.1001  0.6824  0.5450
 7434SOL     OW29300   5.962   1.268   2.726  0.0878 -0.1038 -0.1738
 7434SOL    HW129301   5.977   1.172   2.703  0.5174 -0.1197  0.1739
 7434SOL    HW229302   6.050   1.310   2.750 -0.5830 -0.4992  3.0779
 7435SOL     OW29303   5.450   4.678   0.344  0.2114 -0.3276 -0.2790
 7435SOL    HW129304   5.421   4.626   0.425  0.7475 -0.3695 -0.1100
 7435SOL    HW229305   5.425   4.627   0.262 -1.2147  0.1741 -0.1749
 7436SOL     OW29306   2.819   1.204   1.547  0.7372 -0.4269 -0.1178
 7436SOL    HW129307   2.902   1.185   1.600  1.7446  0.0282 -1.5166
 7436SOL    HW229308   2.832   1.286   1.492 -0.8931  0.0263  0.1523
 7437SOL     OW29309   2.528   3.358   3.476 -0.2099 -0.1656 -0.0050
 7437SOL    HW129310   2.600   3.293   3.500 -0.1959 -0.2107 -0.1713
 7437SOL    HW229311   2.508   3.352   3.378 -1.6701 -1.4006  0.3495
 7438SOL     OW29312   0.217   4.680   2.346  0.0198 -0.1371  0.3500
 7438SOL    HW129313   0.180   4.589   2.363  0.0046  0.0648  1.4168
 7438SOL    HW229314   0.150   4.735   2.296  0.9180 -1.4443 -2.4096
 7439SOL     OW29315   3.153   2.023   1.224  0.0915 -0.6847 -1.0604
 7439SOL    HW129316   3.089   2.001   1.299  0.4123  1.3637 -0.1492
 7439SOL    HW229317   3.245   2.033   1.261  0.2876  0.1256 -1.7600
 7440SOL     OW29318   0.092   2.730   4.435 -0.2653  0.4233  0.0417
 7440SOL    HW129319   0.002   2.698   4.407 -0.2765  0.7810 -0.3277
 7440SOL    HW229320   0.149   2.651   4.458 -0.5049  0.1697 -0.2328
 7441SOL     OW29321   1.022   3.500   0.609  0.1279 -0.2640 -0.2000
 7441SOL    HW129322   1.095   3.567   0.609 -1.0479  1.1274  3.4583
 7441SOL    HW229323   1.044   3.427   0.674 -1.4139 -0.1515  0.4721
 7442SOL     OW29324   6.393   3.853   0.266  0.9190 -0.3543  0.3042
 7442SOL    HW129325   6.482   3.856   0.312 -0.1505 -2.5653  2.6328
 7442SOL    HW229326   6.398   3.793   0.187  1.2371 -1.3226  1.0555
 7443SOL     OW29327   7.126   6.156   0.635  0.2860 -0.3220  0.1324
 7443SOL    HW129328   7.089   6.205   0.714 -0.2623 -1.0072  0.3002
 7443SOL    HW229329   7.080   6.068   0.625 -1.2883  0.7340 -2.3344
 7444SOL     OW29330   0.045   4.938   6.979 -0.2723  0.1648  0.0194
 7444SOL    HW129331   0.081   4.852   6.945  0.8085  0.2751  0.8574
 7444SOL    HW229332   0.119   4.990   7.023 -1.0210  1.2812 -0.0304
 7445SOL     OW29333   0.296   6.522   6.313 -0.5870  0.8280  0.8810
 7445SOL    HW129334   0.290   6.583   6.392  0.1092  0.0484  1.5585
 7445SOL    HW229335   0.227   6.547   6.246 -1.0282  1.6655  1.6339
 7446SOL     OW29336   7.088   1.596   4.499  0.0028  0.1814  0.1627
 7446SOL    HW129337   7.154   1.647   4.555  1.1437 -0.2164 -0.8111
 7446SOL    HW229338   7.097   1.622   4.403  0.6943 -1.9062 -0.3823
 7447SOL     OW29339   6.354   1.031   6.739 -0.3596  0.2052  0.8313
 7447SOL    HW129340   6.264   1.065   6.766 -0.9899 -0.7269 -0.0651
 7447SOL    HW229341   6.349   0.994   6.646  1.1931  1.1203  0.3590
 7448SOL     OW29342   0.129   2.683   3.928 -0.3105 -0.4836  0.3434
 7448SOL    HW129343   0.036   2.697   3.896  0.9897  1.0998 -2.9865
 7448SOL    HW229344   0.152   2.586   3.923 -1.0191 -0.5904 -1.0855
 7449SOL     OW29345   3.498   4.430   7.066 -0.4995  1.1512  0.0805
 7449SOL    HW129346   3.464   4.342   7.034 -0.9509  1.5579 -0.5779
 7449SOL    HW229347   3.509   4.492   6.988 -0.8499  1.8995  0.6214
 7450SOL     OW29348   5.317   3.353   7.331 -0.9011 -0.0505 -0.5638
 7450SOL    HW129349   5.357   3.289   7.397  0.5874 -0.1863 -1.5744
 7450SOL    HW229350   5.368   3.439   7.333  1.0540 -1.0555 -3.5838
 7451SOL     OW29351   5.409   1.275   3.668  0.1308  0.1272  0.5639
 7451SOL    HW129352   5.400   1.182   3.634  1.8998  0.3554 -0.5861
 7451SOL    HW229353   5.448   1.333   3.596  0.4340  1.4272  1.7607
 7452SOL     OW29354   2.190   1.802   6.358 -0.1875  0.2515  0.3132
 7452SOL    HW129355   2.134   1.720   6.365 -0.4795  0.5010  0.9291
 7452SOL    HW229356   2.251   1.807   6.436  1.5666 -0.6504 -0.9533
 7453SOL     OW29357   5.684   5.993   4.318 -0.4595  0.5759 -0.0203
 7453SOL    HW129358   5.735   5.925   4.265 -0.0225  1.3702 -0.6496
 7453SOL    HW229359   5.733   6.080   4.314 -0.1497  0.5093  2.1650
 7454SOL     OW29360   6.008   5.690   6.016 -0.4606  0.3774  0.0206
 7454SOL    HW129361   6.038   5.785   6.015  0.9560 -0.0780 -0.7736
 7454SOL    HW229362   6.075   5.633   6.065 -0.8684 -0.3544 -0.2568
 7455SOL     OW29363   4.908   3.161   1.650  0.3315 -0.3896  0.2455
 7455SOL    HW129364   4.873   3.228   1.584  0.6381 -0.3769  0.0980
 7455SOL    HW229365   4.964   3.093   1.603  0.3901 -0.4953  0.4650
 7456SOL     OW29366   5.751   5.523   6.066  0.3551 -0.6131  0.8970
 7456SOL    HW129367   5.844   5.559   6.079  0.5226 -0.8973  0.4723
 7456SOL    HW229368   5.688   5.573   6.126  0.4539  0.9064 -0.2439
 7457SOL     OW29369   3.715   0.372   5.155 -0.1761 -0.0666  0.2986
 7457SOL    HW129370   3.675   0.460   5.182  0.3771 -0.0651  1.1555
 7457SOL    HW229371   3.747   0.324   5.237  2.1523  0.2228 -0.3996
 7458SOL     OW29372   1.803   3.951   1.105 -0.3160  0.1817 -0.0796
 7458SOL    HW129373   1.800   3.915   1.198  0.4255 -0.6844 -0.3819
 7458SOL    HW229374   1.898   3.972   1.081 -0.5683  0.9119 -0.4516
 7459SOL     OW29375   4.268   0.995   6.416  0.2742 -0.5370 -0.1181
 7459SOL    HW129376   4.257   0.970   6.512  0.1967 -4.0951 -0.9956
 7459SOL    HW229377   4.196   0.953   6.362  0.8399  0.6881 -1.8503
 7460SOL     OW29378   1.434   1.458   3.828  0.6580 -0.5754 -0.0830
 7460SOL    HW129379   1.417   1.519   3.905 -2.2551 -0.7506 -0.5178
 7460SOL    HW229380   1.486   1.506   3.758  0.8601  0.4769  0.7758
 7461SOL     OW29381   7.351   7.310   7.000  0.4544 -0.0756  0.0581
 7461SOL    HW129382   7.281   7.269   7.059  0.5582  0.9279  0.8920
 7461SOL    HW229383   7.438   7.313   7.049  0.2637  1.8705  0.3181
 7462SOL     OW29384   1.271   4.460   0.232 -0.9900  0.2598  0.5842
 7462SOL    HW129385   1.232   4.545   0.197  0.4004 -0.0900 -1.9384
 7462SOL    HW229386   1.255   4.386   0.167  0.5356 -0.7143  1.2889
 7463SOL     OW29387   6.674   5.104   0.490  0.2358 -0.5240 -0.0845
 7463SOL    HW129388   6.712   5.142   0.405  1.5076  1.7830  1.4448
 7463SOL    HW229389   6.733   5.030   0.522  2.3205  1.5865  1.1116
 7464SOL     OW29390   6.236   1.510   2.529  0.5245  0.4130 -0.3472
 7464SOL    HW129391   6.320   1.565   2.529  1.3699 -0.8585 -0.9492
 7464SOL    HW229392   6.250   1.427   2.475 -1.0648  0.0825 -0.2834
 7465SOL     OW29393   5.751   2.652   7.103 -0.3854 -0.7098  0.3041
 7465SOL    HW129394   5.660   2.624   7.135  0.3575 -1.1772  2.0154
 7465SOL    HW229395   5.802   2.572   7.072 -0.5409 -0.4452 -0.6718
 7466SOL     OW29396   4.070   2.412   3.612 -0.1249 -0.2369  0.3939
 7466SOL    HW129397   4.024   2.330   3.577 -1.4597  0.8374 -0.4302
 7466SOL    HW229398   4.093   2.472   3.536  0.3052  0.4359  1.0491
 7467SOL     OW29399   5.485   4.799   5.645  0.0061 -0.3275  0.2478
 7467SOL    HW129400   5.447   4.877   5.596 -1.3073 -0.7976  0.5040
 7467SOL    HW229401   5.439   4.715   5.615  2.0076 -1.1422 -0.6944
 7468SOL     OW29402   3.482   2.365   4.929  0.1936  0.3000  0.3732
 7468SOL    HW129403   3.479   2.305   5.009  1.5562  1.3321  1.2115
 7468SOL    HW229404   3.453   2.314   4.848  0.8354 -1.3458  1.1593
 7469SOL     OW29405   1.111   6.222   1.247  0.2115  0.8623 -0.9225
 7469SOL    HW129406   1.115   6.293   1.317  2.3971  0.3225 -0.4617
 7469SOL    HW229407   1.095   6.265   1.157  0.3130  1.8259 -0.4904
 7470SOL     OW29408   6.889   1.883   2.395 -0.0825  0.3454  0.2274
 7470SOL    HW129409   6.804   1.928   2.422  0.5993  1.5029  0.4865
 7470SOL    HW229410   6.882   1.850   2.301  0.9003  4.8793 -1.5668
 7471SOL     OW29411   3.335   5.130   0.430  0.0358  0.5511 -0.8940
 7471SOL    HW129412   3.280   5.077   0.493  0.4198 -0.7281 -1.6182
 7471SOL    HW229413   3.369   5.212   0.476  0.5139 -0.4801  0.6154
 7472SOL     OW29414   0.013   2.743   6.922 -0.5490 -0.0483 -0.1490
 7472SOL    HW129415   0.018   2.659   6.867  0.3242  0.7853 -1.4045
 7472SOL    HW229416  -0.010   2.820   6.862 -2.7363  0.4059  1.2284
 7473SOL     OW29417   3.854   1.361   0.121 -0.3284 -0.5091 -0.7833
 7473SOL    HW129418   3.776   1.420   0.140 -0.6277 -1.3515  0.6615
 7473SOL    HW229419   3.931   1.387   0.178 -0.0482 -0.6933 -1.0715
 7474SOL     OW29420   5.867   0.350   2.237  0.1307  0.2011 -0.2483
 7474SOL    HW129421   5.828   0.302   2.158 -1.1973 -0.4310  0.7819
 7474SOL    HW229422   5.891   0.284   2.308  2.8654  0.6054 -0.7432
 7475SOL     OW29423   1.996   1.134   1.836  0.0779 -0.3371 -0.3259
 7475SOL    HW129424   1.958   1.206   1.778 -1.0870 -0.6806  0.0132
 7475SOL    HW229425   1.927   1.065   1.853  0.3666 -0.1612  1.6211
 7476SOL     OW29426   1.733   2.472   6.383 -0.4936  0.0244  0.2020
 7476SOL    HW129427   1.747   2.377   6.413  0.0369  0.1680  0.4078
 7476SOL    HW229428   1.699   2.526   6.459  1.5552  0.5566  0.7545
 7477SOL     OW29429   5.106   6.629   2.934  0.3086 -0.2033  0.2038
 7477SOL    HW129430   5.104   6.643   3.033  4.6880  0.6591  0.2731
 7477SOL    HW229431   5.096   6.532   2.913 -0.8283 -0.3667  1.4398
 7478SOL     OW29432   4.536   4.523   1.364 -0.5655  0.6796 -0.0630
 7478SOL    HW129433   4.498   4.466   1.291  2.2280 -2.6087  0.9011
 7478SOL    HW229434   4.487   4.504   1.450 -1.2878  1.6898 -0.2306
 7479SOL     OW29435   2.345   2.524   4.441 -0.4754  0.2694  0.6235
 7479SOL    HW129436   2.314   2.514   4.535  0.1399  2.0640  1.0321
 7479SOL    HW229437   2.297   2.600   4.397 -1.3693 -1.0769 -0.7935
 7480SOL     OW29438   1.500   4.679   2.008  0.3746 -0.2133 -0.5786
 7480SOL    HW129439   1.499   4.756   1.944  0.3785 -1.0669 -1.6001
 7480SOL    HW229440   1.413   4.630   2.003 -0.4468  0.9312  1.5672
 7481SOL     OW29441   5.228   5.859   1.651 -0.3822  0.5406 -0.1181
 7481SOL    HW129442   5.321   5.865   1.615 -1.4321  0.8584 -2.9015
 7481SOL    HW229443   5.221   5.914   1.734  2.0776 -0.0763  0.5417
 7482SOL     OW29444   1.892   4.781   0.139  0.3796 -0.0329 -0.0387
 7482SOL    HW129445   1.907   4.825   0.051  2.3278 -0.8173 -0.1328
 7482SOL    HW229446   1.858   4.848   0.205  2.0022  1.3097 -0.5347
 7483SOL     OW29447   3.674   4.734   2.164 -0.1155  0.0537  0.1122
 7483SOL    HW129448   3.585   4.700   2.133  0.0269  0.1561 -0.4174
 7483SOL    HW229449   3.733   4.750   2.085  0.5602 -0.5295  0.4950
 7484SOL     OW29450   6.626   4.381   1.292 -0.4560 -0.0681 -0.1851
 7484SOL    HW129451   6.632   4.446   1.367  0.4783  0.6816 -0.8966
 7484SOL    HW229452   6.532   4.378   1.258 -0.3245  1.6644 -0.7854
 7485SOL     OW29453   3.644   0.511   2.439 -0.2048  0.0472 -0.3566
 7485SOL    HW129454   3.578   0.455   2.389 -2.3741  0.4913  1.9134
 7485SOL    HW229455   3.652   0.477   2.533  0.7866  1.6580  0.1613
 7486SOL     OW29456   2.202   0.139   3.002 -0.0418  0.2590 -0.6773
 7486SOL    HW129457   2.140   0.083   3.057  0.1498 -0.0484 -0.7755
 7486SOL    HW229458   2.289   0.092   2.991  0.1579  0.6230 -0.6696
 7487SOL     OW29459   2.130   6.490   7.126 -0.0503  0.4275  0.1653
 7487SOL    HW129460   2.200   6.488   7.197  0.3104  0.1761 -0.1921
 7487SOL    HW229461   2.042   6.467   7.166 -0.4249  3.3888  1.1566
 7488SOL     OW29462   4.462   0.603   6.139 -0.0053 -0.4024 -0.6086
 7488SOL    HW129463   4.448   0.592   6.238 -1.5466  0.7853 -0.6704
 7488SOL    HW229464   4.510   0.524   6.103 -1.4191 -1.8977  0.7129
 7489SOL     OW29465   6.901   6.013   4.310  0.1323  0.8927 -0.1630
 7489SOL    HW129466   6.867   6.052   4.224 -1.4767 -0.6674 -0.2645
 7489SOL    HW229467   6.984   5.960   4.291 -0.6949 -0.1678 -0.9324
 7490SOL     OW29468   6.711   4.747   3.408 -0.5908 -0.1143 -0.0311
 7490SOL    HW129469   6.707   4.840   3.445 -1.6850  1.1161 -3.1231
 7490SOL    HW229470   6.779   4.743   3.334 -1.6905 -1.3691 -1.0043
 7491SOL     OW29471   0.867   4.698   0.379 -0.2498 -0.0712 -0.4927
 7491SOL    HW129472   0.911   4.725   0.293 -1.0482  0.8202 -0.6313
 7491SOL    HW229473   0.834   4.780   0.426  0.2823 -0.5518  0.7225
 7492SOL     OW29474   3.877   5.420   5.572  0.4481 -0.0119  0.0878
 7492SOL    HW129475   3.812   5.344   5.565 -0.1699  0.4519  0.7178
 7492SOL    HW229476   3.967   5.390   5.539  0.1784 -0.9740  0.2092
 7493SOL     OW29477   6.574   3.861   6.635 -0.2558  0.3924 -0.4548
 7493SOL    HW129478   6.626   3.940   6.667 -0.4949  1.0657 -1.6948
 7493SOL    HW229479   6.577   3.857   6.535 -2.3602  0.3126 -0.5465
 7494SOL     OW29480   4.587   3.122   5.242 -0.3651  0.2661  0.1800
 7494SOL    HW129481   4.499   3.078   5.224 -0.0780  0.0533 -0.7029
 7494SOL    HW229482   4.630   3.150   5.156  1.2570 -1.2592  0.4496
 7495SOL     OW29483   6.265   1.867   6.457 -0.0237  0.2091 -0.1558
 7495SOL    HW129484   6.291   1.860   6.553 -1.5507 -1.3518  0.1708
 7495SOL    HW229485   6.316   1.801   6.403  1.7435  1.9289 -0.6484
 7496SOL     OW29486   4.096   4.409   2.477 -0.0500  0.1547 -0.0046
 7496SOL    HW129487   4.073   4.502   2.505 -1.1499 -0.0774 -0.1299
 7496SOL    HW229488   4.126   4.356   2.557 -1.0012  0.1458  0.3453
 7497SOL     OW29489   0.977   4.072   6.543  0.1761 -0.2047 -0.4780
 7497SOL    HW129490   1.011   4.146   6.484 -1.3386  1.0536  0.1882
 7497SOL    HW229491   0.907   4.020   6.494 -0.3215  0.1723 -0.1657
 7498SOL     OW29492   1.022   2.663   6.472  0.2551 -0.2899  0.2092
 7498SOL    HW129493   0.973   2.589   6.425 -0.1256  0.3475 -0.4024
 7498SOL    HW229494   0.959   2.712   6.532  0.5624 -0.6116  0.7944
 7499SOL     OW29495   5.860   4.890   1.838 -0.2038 -0.2195 -0.3982
 7499SOL    HW129496   5.776   4.853   1.877 -0.0957 -0.5562 -0.4885
 7499SOL    HW229497   5.847   4.987   1.815  0.3546  0.5818  2.4289
 7500SOL     OW29498   4.260   1.384   3.211  0.2279  0.2762 -0.3531
 7500SOL    HW129499   4.259   1.441   3.293  2.5230  0.3847 -0.3611
 7500SOL    HW229500   4.355   1.369   3.182 -0.5329  0.0547 -2.8648
 7501SOL     OW29501   4.708   3.789   3.979  0.0314  0.0179 -0.3404
 7501SOL    HW129502   4.610   3.807   3.980  0.2516  1.2116  1.3354
 7501SOL    HW229503   4.750   3.837   3.902 -0.4737  0.7342 -0.1674
 7502SOL     OW29504   5.910   6.060   1.285  0.3866  0.0327  0.0076
 7502SOL    HW129505   5.885   6.106   1.370  2.1602  0.0805  0.5157
 7502SOL    HW229506   6.004   6.028   1.291  0.7076  0.5216 -2.1589
 7503SOL     OW29507   3.125   6.479   0.626 -0.5214  0.2324  0.3444
 7503SOL    HW129508   3.192   6.512   0.693 -0.6597  0.1381  0.5308
 7503SOL    HW229509   3.155   6.390   0.591  1.4705  1.9354 -2.4835
 7504SOL     OW29510   1.435   4.739   4.839  0.3210  0.0663 -0.3309
 7504SOL    HW129511   1.446   4.643   4.815  1.8104  0.2100 -0.2569
 7504SOL    HW229512   1.344   4.770   4.810 -1.3440 -2.1262  2.2151
 7505SOL     OW29513   5.254   0.672   2.776  0.0468  0.0173  0.4023
 7505SOL    HW129514   5.221   0.742   2.712  0.9375  0.4677  0.4217
 7505SOL    HW229515   5.284   0.716   2.861 -1.8358 -0.6581  1.4339
 7506SOL     OW29516   2.389   4.854   5.526 -0.0500  0.4916  0.6300
 7506SOL    HW129517   2.487   4.851   5.507 -0.3160  1.1738 -0.9533
 7506SOL    HW229518   2.355   4.947   5.511 -0.9561  0.2313  1.0512
 7507SOL     OW29519   7.116   6.364   1.404 -0.1640  0.3597  0.2693
 7507SOL    HW129520   7.135   6.459   1.429  3.0240 -0.3311  0.6963
 7507SOL    HW229521   7.054   6.324   1.472  0.6622  1.3264  1.6204
 7508SOL     OW29522   5.139   0.149   4.242  0.1225  0.0194  0.0288
 7508SOL    HW129523   5.112   0.105   4.156  0.6382 -0.2089 -0.0157
 7508SOL    HW229524   5.232   0.121   4.266 -0.2306 -0.3863  0.9665
 7509SOL     OW29525   0.076   5.676   0.912  0.2926 -0.7060 -0.2364
 7509SOL    HW129526   0.022   5.602   0.951  1.1314 -1.3954 -0.3764
 7509SOL    HW229527   0.110   5.735   0.986  1.0558 -1.4504  0.0227
 7510SOL     OW29528   2.528   3.876   5.792  0.1575  0.4371 -0.2561
 7510SOL    HW129529   2.453   3.818   5.825 -0.6790  1.3226 -0.5594
 7510SOL    HW229530   2.524   3.965   5.838 -0.8231  1.5699 -2.4534
 7511SOL     OW29531   5.681   3.494   2.424 -0.7308 -0.0427  0.2568
 7511SOL    HW129532   5.721   3.488   2.516  0.1829  0.6525 -0.0855
 7511SOL    HW229533   5.642   3.405   2.399 -0.0908 -0.5175  0.9175
 7512SOL     OW29534   7.283   1.532   3.002  0.0567 -0.2803 -0.0566
 7512SOL    HW129535   7.316   1.534   3.097  4.2109 -1.6012 -1.3619
 7512SOL    HW229536   7.319   1.611   2.953 -2.4916  0.6660 -0.4371
 7513SOL     OW29537   6.618   2.751   4.837 -0.1878 -0.1739 -0.4169
 7513SOL    HW129538   6.686   2.706   4.894  1.3435  0.0412 -2.0413
 7513SOL    HW229539   6.569   2.682   4.783  0.1025 -0.1479 -0.7113
 7514SOL     OW29540   1.047   6.721   5.437 -0.1011 -0.4876  0.0932
 7514SOL    HW129541   1.051   6.625   5.409  0.8154  0.4150 -3.0479
 7514SOL    HW229542   1.139   6.759   5.439 -0.4509  0.3353  1.4227
 7515SOL     OW29543   6.034   1.487   5.125 -0.3874  0.7345  0.7443
 7515SOL    HW129544   5.937   1.512   5.134 -0.6943 -0.3867  0.6698
 7515SOL    HW229545   6.067   1.513   5.035 -1.0332 -0.1712  0.2281
 7516SOL     OW29546   3.538   7.223   6.419  0.1791  0.2522  0.0966
 7516SOL    HW129547   3.533   7.308   6.366  1.7582  0.2099 -0.1242
 7516SOL    HW229548   3.500   7.240   6.510 -1.1551  0.7144 -0.5197
 7517SOL     OW29549   0.813   3.441   5.726  0.3618  0.3993 -0.6685
 7517SOL    HW129550   0.816   3.347   5.693 -2.4699  0.7768 -2.1105
 7517SOL    HW229551   0.841   3.504   5.653  0.6345  0.8020 -0.2266
 7518SOL     OW29552   4.004   4.439   1.326  0.2154  0.8700  0.2550
 7518SOL    HW129553   3.921   4.386   1.342  0.6580 -0.5817 -2.0460
 7518SOL    HW229554   4.084   4.384   1.349  0.6444  0.9232 -1.0889
 7519SOL     OW29555   3.970   0.109   1.839  0.0371 -0.5166 -0.3579
 7519SOL    HW129556   3.961   0.160   1.924  2.7134 -1.3126  0.4537
 7519SOL    HW229557   3.916   0.024   1.845 -2.6781  1.1170 -0.8951
 7520SOL     OW29558   1.706   5.723   3.726 -0.1696 -0.7753  0.2397
 7520SOL    HW129559   1.639   5.705   3.798 -0.6823  1.6209  0.4021
 7520SOL    HW229560   1.791   5.756   3.768  0.3197 -1.5629 -0.1184
 7521SOL     OW29561   7.344   3.186   5.404  0.1146 -0.7397 -0.4968
 7521SOL    HW129562   7.263   3.187   5.346  1.4178 -0.2330 -2.3631
 7521SOL    HW229563   7.360   3.278   5.440 -0.9276 -1.1387  1.0463
 7522SOL     OW29564   2.096   4.827   3.117 -0.1574 -0.1913 -0.3282
 7522SOL    HW129565   2.041   4.854   3.196 -1.4098 -1.3652 -0.7754
 7522SOL    HW229566   2.171   4.767   3.148 -0.1137  0.0696  0.0773
 7523SOL     OW29567   2.338   5.915   3.149 -0.0136 -0.1820  0.6085
 7523SOL    HW129568   2.424   5.921   3.199  0.5822  0.8240 -0.5235
 7523SOL    HW229569   2.274   5.984   3.183  0.6372  0.9743 -0.4481
 7524SOL     OW29570   5.914   3.518   7.213  0.7097 -0.7759  0.1533
 7524SOL    HW129571   5.927   3.502   7.115 -0.0285  0.0494 -0.0882
 7524SOL    HW229572   5.940   3.436   7.264  1.9193 -0.9162 -0.6719
 7525SOL     OW29573   0.377   2.816   3.072  0.3952 -0.5303  0.0771
 7525SOL    HW129574   0.354   2.851   3.162 -0.7271 -0.6930 -0.1336
 7525SOL    HW229575   0.356   2.718   3.067 -0.3635 -0.3435 -0.6177
 7526SOL     OW29576   6.895   2.313   1.475  0.3750  0.1822  0.0659
 7526SOL    HW129577   6.994   2.316   1.462  0.3491 -1.4398 -0.5801
 7526SOL    HW229578   6.873   2.329   1.571  1.3441 -0.7534  0.4552
 7527SOL     OW29579   0.281   2.406   0.462  0.0109  0.0174  0.4227
 7527SOL    HW129580   0.236   2.441   0.380  4.1934  1.8964 -1.2000
 7527SOL    HW229581   0.307   2.482   0.521  2.8047 -0.8371  0.3502
 7528SOL     OW29582   3.122   1.338   0.602 -0.4282 -0.0573 -0.0341
 7528SOL    HW129583   3.070   1.331   0.516  0.6365 -0.1469 -0.6890
 7528SOL    HW229584   3.080   1.280   0.671 -0.4792 -1.1356 -0.9388
 7529SOL     OW29585   5.994   2.236   6.705  0.3311 -0.1934  0.4343
 7529SOL    HW129586   5.965   2.316   6.652  1.1262  0.2219  0.6256
 7529SOL    HW229587   6.035   2.169   6.644  0.8109  0.0841  0.4423
 7530SOL     OW29588   4.958   0.917   1.077  0.1444  0.9453  0.1115
 7530SOL    HW129589   4.882   0.972   1.041  0.5897  1.7761  0.4311
 7530SOL    HW229590   4.922   0.847   1.138 -0.5098  0.3119 -0.9703
 7531SOL     OW29591   4.276   2.032   7.035 -0.1700 -0.5828 -0.4784
 7531SOL    HW129592   4.224   1.983   7.105  0.5112  0.7046  0.9635
 7531SOL    HW229593   4.273   1.981   6.949 -0.0645 -2.7776  0.7859
 7532SOL     OW29594   0.443   3.462   1.487 -0.3886  0.0831 -0.2184
 7532SOL    HW129595   0.508   3.519   1.538 -1.3398  1.1318 -0.1622
 7532SOL    HW229596   0.486   3.430   1.403  1.0637 -1.3572  1.0430
 7533SOL     OW29597   7.285   4.060   0.026  0.5088  0.4437 -0.3918
 7533SOL    HW129598   7.298   4.158   0.044 -0.0230  0.5640 -0.6495
 7533SOL    HW229599   7.207   4.047  -0.035  1.3196 -0.0740 -1.3235
 7534SOL     OW29600   4.679   3.558   3.414 -0.0259 -0.0011 -0.2655
 7534SOL    HW129601   4.611   3.522   3.478 -0.8000  2.2603  0.2179
 7534SOL    HW229602   4.677   3.658   3.416  0.7670  0.1014 -2.9698
 7535SOL     OW29603   2.935   6.232   5.179 -0.0981  0.6363 -0.2032
 7535SOL    HW129604   2.919   6.289   5.098  0.5755 -0.1878 -0.9322
 7535SOL    HW229605   2.917   6.285   5.262 -0.6835  1.5286 -0.8907
 7536SOL     OW29606   5.227   7.199   1.497 -0.2444  0.2042 -0.0706
 7536SOL    HW129607   5.286   7.161   1.426 -0.3669 -2.5643  1.2361
 7536SOL    HW229608   5.131   7.194   1.467 -0.4224 -2.2680  0.7997
 7537SOL     OW29609   6.269   2.714   3.747 -0.0854  0.0819  0.8195
 7537SOL    HW129610   6.226   2.655   3.679 -0.7490  0.3823  0.9785
 7537SOL    HW229611   6.368   2.700   3.745 -0.0093  0.6596 -0.7635
 7538SOL     OW29612   5.912   3.634   1.175  0.4641 -0.0914  0.2320
 7538SOL    HW129613   5.994   3.581   1.155 -0.9357 -1.6282 -1.6790
 7538SOL    HW229614   5.885   3.685   1.093 -2.9097 -3.0419 -0.6374
 7539SOL     OW29615   0.915   0.817   2.144  0.1266  0.2975  0.6016
 7539SOL    HW129616   0.949   0.864   2.063 -0.7205 -1.0998 -0.6059
 7539SOL    HW229617   0.888   0.883   2.213  0.1514  1.5288 -0.5606
 7540SOL     OW29618   3.020   2.508   1.043  0.1908 -0.4082 -0.4667
 7540SOL    HW129619   2.946   2.472   0.986  0.6946 -0.3002 -1.1931
 7540SOL    HW229620   3.091   2.549   0.985 -0.1800  1.4088  0.3064
 7541SOL     OW29621   5.878   3.880   0.322  0.2706 -0.1109  0.0186
 7541SOL    HW129622   5.792   3.835   0.348  0.8460 -1.1793  0.1071
 7541SOL    HW229623   5.859   3.950   0.253 -1.0448  1.7004  2.1789
 7542SOL     OW29624   0.011   3.164   5.088 -0.2567  0.0792 -0.3227
 7542SOL    HW129625   0.106   3.163   5.122  0.2479  0.2454 -1.6806
 7542SOL    HW229626  -0.045   3.218   5.150  0.9187  1.4781 -0.4383
 7543SOL     OW29627   3.447   5.471   2.310  0.7206  0.3075 -0.1276
 7543SOL    HW129628   3.451   5.381   2.354  1.2052 -0.0338 -0.8673
 7543SOL    HW229629   3.538   5.513   2.312  0.7030  0.3755 -0.6282
 7544SOL     OW29630   1.792   2.994   7.212 -0.0900  0.6485 -0.5032
 7544SOL    HW129631   1.772   3.029   7.121  1.6851  0.0427 -1.1521
 7544SOL    HW229632   1.801   2.894   7.208 -0.5067  0.5653  0.4379
 7545SOL     OW29633   3.757   3.696   4.113 -0.2000 -0.5703  0.3003
 7545SOL    HW129634   3.782   3.783   4.071 -0.5965  0.0865  1.4121
 7545SOL    HW229635   3.730   3.632   4.042 -0.5496  0.4237 -0.4768
 7546SOL     OW29636   6.698   2.671   3.299 -0.2479  0.3618  0.0092
 7546SOL    HW129637   6.615   2.705   3.256  0.4589 -0.2712 -1.9119
 7546SOL    HW229638   6.778   2.703   3.248  0.5915 -0.7614  0.5833
 7547SOL     OW29639   0.609   3.408   0.135 -0.0744 -0.2923 -0.1942
 7547SOL    HW129640   0.538   3.479   0.131 -1.3580 -1.5381  0.2095
 7547SOL    HW229641   0.569   3.323   0.168  1.1494 -1.5908 -1.9450
 7548SOL     OW29642   4.480   1.032   3.281 -0.2600  0.7848 -0.2921
 7548SOL    HW129643   4.404   1.048   3.345 -0.7304 -1.1285 -0.3450
 7548SOL    HW229644   4.516   0.940   3.294  1.7210  1.4821 -0.6525
 7549SOL     OW29645   2.628   4.981   0.030 -0.5749 -0.6275  0.3491
 7549SOL    HW129646   2.653   5.009  -0.063  1.2438 -0.8003  0.7740
 7549SOL    HW229647   2.680   5.035   0.096 -1.3027 -1.0358  1.2663
 7550SOL     OW29648   4.808   6.192   2.504 -0.4882 -0.2142 -0.4628
 7550SOL    HW129649   4.815   6.158   2.410  1.7610 -0.6501 -0.1565
 7550SOL    HW229650   4.858   6.132   2.565 -0.6570  0.9229  0.8203
 7551SOL     OW29651   5.555   3.792   5.121  0.0608 -0.2118 -0.0126
 7551SOL    HW129652   5.578   3.755   5.210 -2.6812 -2.1500 -0.0413
 7551SOL    HW229653   5.638   3.804   5.066  1.2568 -4.1409  0.8316
 7552SOL     OW29654   6.040   0.218   6.180  0.1854  0.5020 -0.4622
 7552SOL    HW129655   6.106   0.156   6.138 -0.7513 -1.4380  0.8552
 7552SOL    HW229656   6.088   0.279   6.243  0.6296 -1.7857  1.5147
 7553SOL     OW29657   6.782   4.998   4.349  0.7419  0.4171  0.6344
 7553SOL    HW129658   6.800   4.922   4.412 -1.0448  0.1312  0.8145
 7553SOL    HW229659   6.824   5.082   4.386  0.1592  0.1455  1.9567
 7554SOL     OW29660   7.177   1.451   1.536 -0.2553  0.4186  0.1274
 7554SOL    HW129661   7.221   1.401   1.610  0.2084  0.6695  0.0297
 7554SOL    HW229662   7.183   1.549   1.554 -0.7624  0.4564  0.1004
 7555SOL     OW29663   5.489   1.285   6.799  0.2222  0.7360 -0.1810
 7555SOL    HW129664   5.586   1.260   6.800  0.1107  0.3123  0.2241
 7555SOL    HW229665   5.478   1.376   6.758  0.9843  1.5792  1.4126
 7556SOL     OW29666   6.436   3.897   7.083  0.2500  0.0627 -0.1283
 7556SOL    HW129667   6.340   3.917   7.062  0.3654 -0.1420 -0.8632
 7556SOL    HW229668   6.457   3.929   7.175 -0.7060 -0.5177  0.2921
 7557SOL     OW29669   0.673   2.058   6.916 -0.7430 -0.4318  0.3858
 7557SOL    HW129670   0.725   2.077   6.999 -3.9132 -0.8477  2.5894
 7557SOL    HW229671   0.659   1.960   6.907 -0.3891 -0.3888 -0.6773
 7558SOL     OW29672   1.360   4.093   0.284  0.2647 -0.4966  0.1065
 7558SOL    HW129673   1.288   4.027   0.306 -0.5393  1.2132  2.8124
 7558SOL    HW229674   1.448   4.057   0.314  0.2794 -1.6504 -1.2477
 7559SOL     OW29675   5.875   2.072   0.664 -0.4728 -0.5553 -0.0629
 7559SOL    HW129676   5.866   1.978   0.699 -0.4857 -0.2875  0.6662
 7559SOL    HW229677   5.808   2.131   0.709 -0.0972 -0.0841 -0.1109
 7560SOL     OW29678   3.534   5.626   6.212 -0.4910  0.2027  0.1247
 7560SOL    HW129679   3.442   5.609   6.177 -0.5966 -0.4679  0.7121
 7560SOL    HW229680   3.588   5.673   6.143 -1.1628  0.2587 -0.3651
 7561SOL     OW29681   4.305   3.225   1.110 -0.1686  0.5134 -0.2007
 7561SOL    HW129682   4.220   3.238   1.160 -0.3829 -1.3002 -0.0632
 7561SOL    HW229683   4.380   3.271   1.159 -1.0941  2.3804 -0.4938
 7562SOL     OW29684   5.267   3.490   3.014 -0.3294  0.4669  0.5009
 7562SOL    HW129685   5.198   3.533   3.072 -1.1291  0.7707 -0.6552
 7562SOL    HW229686   5.228   3.408   2.971  0.2160  0.3070  0.3050
 7563SOL     OW29687   6.462   2.445   1.248  0.1048  0.1688  0.3096
 7563SOL    HW129688   6.524   2.506   1.199 -0.5559  0.6165  0.0225
 7563SOL    HW229689   6.399   2.403   1.183  0.6742 -0.9594  0.4837
 7564SOL     OW29690   1.591   1.068   4.936 -1.1107  0.1576  0.1688
 7564SOL    HW129691   1.615   1.041   4.843 -1.5987 -2.5746  0.8142
 7564SOL    HW229692   1.672   1.061   4.994 -1.0052  1.0994  0.1573
 7565SOL     OW29693   4.814   0.308   0.645  0.0283 -0.1367 -0.0895
 7565SOL    HW129694   4.819   0.381   0.577 -1.0581 -0.3411 -0.4047
 7565SOL    HW229695   4.851   0.340   0.732  0.0417  0.6151 -0.3692
 7566SOL     OW29696   1.604   6.772   5.697  0.8588  0.2016 -0.0667
 7566SOL    HW129697   1.567   6.688   5.659  1.5104 -0.1385  0.0384
 7566SOL    HW229698   1.530   6.836   5.716  0.5844  0.7441 -2.7639
 7567SOL     OW29699   1.740   7.214   3.540 -0.7161  0.0227  0.2214
 7567SOL    HW129700   1.825   7.169   3.566 -1.3059 -1.3203 -0.1688
 7567SOL    HW229701   1.719   7.287   3.606  1.4882  1.3395 -0.4921
 7568SOL     OW29702   4.040   3.789   4.263  0.0130 -0.2883 -0.3800
 7568SOL    HW129703   3.951   3.756   4.232  0.2292  0.1822 -1.5105
 7568SOL    HW229704   4.051   3.767   4.360 -0.9793 -1.0947 -0.4381
 7569SOL     OW29705   6.715   4.708   1.348 -0.0107 -0.2919 -0.1664
 7569SOL    HW129706   6.799   4.755   1.321 -0.3526  0.1796 -0.4303
 7569SOL    HW229707   6.642   4.732   1.284  0.0879 -2.1033 -0.9927
 7570SOL     OW29708   2.928   3.516   4.337 -0.1789  0.3262  0.0458
 7570SOL    HW129709   2.886   3.600   4.304 -1.1644 -0.0040  0.4523
 7570SOL    HW229710   3.011   3.537   4.389 -0.1318  1.0071 -0.3093
 7571SOL     OW29711   2.204   1.463   6.120 -0.0748  0.1607 -0.3766
 7571SOL    HW129712   2.170   1.370   6.101  0.1727  0.3365 -1.6871
 7571SOL    HW229713   2.163   1.496   6.205 -0.3890 -1.0376 -0.0475
 7572SOL     OW29714   5.580   2.066   5.866  0.4030  0.1024 -0.0099
 7572SOL    HW129715   5.636   2.149   5.872 -0.1488  0.5710 -1.1715
 7572SOL    HW229716   5.629   1.990   5.909  1.2919  0.8304  0.2851
 7573SOL     OW29717   4.745   5.728   4.526 -0.1631 -0.0416  0.0512
 7573SOL    HW129718   4.804   5.804   4.555  0.5963 -0.4164 -0.5295
 7573SOL    HW229719   4.679   5.708   4.599 -0.9461  1.7478 -0.1178
 7574SOL     OW29720   1.720   4.734   0.749  0.1463 -0.1535 -0.3390
 7574SOL    HW129721   1.651   4.805   0.760  0.2291 -0.2481  0.8921
 7574SOL    HW229722   1.717   4.672   0.828  2.3598  0.4843  0.3079
 7575SOL     OW29723   1.655   6.973   0.878  0.1216  0.3818  0.3219
 7575SOL    HW129724   1.649   6.873   0.874  0.9710  0.3193  0.6387
 7575SOL    HW229725   1.682   7.008   0.789  0.8659  0.2564  0.4980
 7576SOL     OW29726   5.115   0.141   3.933  0.0232  0.6523  0.2233
 7576SOL    HW129727   5.195   0.183   3.892 -0.7103  0.2378 -1.6977
 7576SOL    HW229728   5.114   0.043   3.911 -0.5033  0.4578  1.0712
 7577SOL     OW29729   4.797   6.089   0.118 -0.0556 -0.2038  0.2086
 7577SOL    HW129730   4.764   6.036   0.196 -1.2183  1.1425  0.6447
 7577SOL    HW229731   4.849   6.168   0.151 -1.3904  0.9181 -0.3558
 7578SOL     OW29732   6.463   2.070   0.273 -0.1500  0.7291 -0.4266
 7578SOL    HW129733   6.426   2.121   0.195 -0.5113  1.3189  0.1207
 7578SOL    HW229734   6.538   2.122   0.314  0.6534 -0.0156 -0.9456
 7579SOL     OW29735   4.235   4.143   1.612 -0.1117  0.2072 -0.4345
 7579SOL    HW129736   4.322   4.160   1.660 -1.4229  0.1404  2.0336
 7579SOL    HW229737   4.228   4.205   1.534  0.8164  2.3735  1.1259
 7580SOL     OW29738   1.954   4.719   5.960  0.2161 -0.2144  0.5356
 7580SOL    HW129739   1.976   4.625   5.986  0.9409 -0.0621  0.4844
 7580SOL    HW229740   1.940   4.774   6.043 -1.0125 -0.5534  0.5554
 7581SOL     OW29741   2.936   0.716   7.357 -0.5416 -0.0550  0.3936
 7581SOL    HW129742   2.963   0.799   7.406  0.7281  0.2692 -0.8097
 7581SOL    HW229743   2.846   0.686   7.389 -0.1753  0.6851  2.2183
 7582SOL     OW29744   5.331   4.879   0.984 -0.2172 -0.4932  0.2864
 7582SOL    HW129745   5.328   4.779   0.989 -1.9361 -0.4722 -0.2040
 7582SOL    HW229746   5.407   4.906   0.924  0.0517 -1.5050  0.1496
 7583SOL     OW29747   4.653   1.106   4.103 -0.0922  0.4804  0.7261
 7583SOL    HW129748   4.598   1.026   4.127 -0.6504  0.7330  0.2808
 7583SOL    HW229749   4.659   1.167   4.182  1.8813 -0.8690  1.6797
 7584SOL     OW29750   1.278   3.126   3.760 -0.0767 -0.3175  0.1043
 7584SOL    HW129751   1.227   3.205   3.795  0.0661 -0.1453 -0.0702
 7584SOL    HW229752   1.215   3.056   3.729 -0.2061 -0.2776  0.2754
 7585SOL     OW29753   2.352   4.895   7.179 -0.1490 -0.4451 -0.0183
 7585SOL    HW129754   2.409   4.820   7.146 -1.6647 -0.7478 -2.0189
 7585SOL    HW229755   2.287   4.859   7.247  0.8006 -0.4344  0.9174
 7586SOL     OW29756   6.967   1.969   4.001  0.1057 -0.0887  0.1343
 7586SOL    HW129757   6.888   1.999   4.054 -1.9502 -0.2364 -2.7450
 7586SOL    HW229758   7.001   2.044   3.946  0.4531 -0.6893 -0.4764
 7587SOL     OW29759   0.464   5.453   4.514  0.3015 -0.2861  0.0242
 7587SOL    HW129760   0.488   5.523   4.581 -2.4462 -1.3178  2.1799
 7587SOL    HW229761   0.454   5.496   4.424  0.6698  1.7253  0.9121
 7588SOL     OW29762   1.881   4.618   7.120  0.1453  0.1311 -0.5524
 7588SOL    HW129763   1.948   4.669   7.065  1.5031  0.3870  1.3100
 7588SOL    HW229764   1.799   4.674   7.132 -0.1913  0.0573 -2.3373
 7589SOL     OW29765   4.954   0.170   6.993 -0.1202  0.4885  0.0578
 7589SOL    HW129766   4.927   0.145   7.086  1.7484 -1.0888  0.2095
 7589SOL    HW229767   5.032   0.114   6.964 -1.0920  0.4610 -2.7279
 7590SOL     OW29768   0.851   2.526   0.745 -0.3449  0.2299  0.2606
 7590SOL    HW129769   0.885   2.442   0.787 -0.7881 -0.1488 -0.1415
 7590SOL    HW229770   0.824   2.590   0.817  0.3885  0.1950  0.5728
 7591SOL     OW29771   2.156   0.832   7.113  0.5395  0.2943 -0.1573
 7591SOL    HW129772   2.243   0.882   7.110 -0.3693  1.9709  0.7992
 7591SOL    HW229773   2.083   0.891   7.078 -0.4967 -0.5342  0.5908
 7592SOL     OW29774   5.179   0.495   7.279  0.0486  0.0072  0.0285
 7592SOL    HW129775   5.080   0.508   7.267 -0.2337 -0.3345  1.7996
 7592SOL    HW229776   5.196   0.400   7.305  0.9769 -0.2399 -1.4099
 7593SOL     OW29777   4.932   4.049   6.839  0.5129  0.1671  0.0854
 7593SOL    HW129778   4.912   4.123   6.903  1.0245  0.1961  0.2185
 7593SOL    HW229779   5.016   4.003   6.868  0.3159 -0.3195 -0.1242
 7594SOL     OW29780   1.969   4.128   5.627 -0.1033  0.1082  0.3221
 7594SOL    HW129781   2.017   4.170   5.704 -0.9093  1.0546  0.3237
 7594SOL    HW229782   1.883   4.087   5.661 -0.5694  0.7272 -0.1041
 7595SOL     OW29783   5.615   6.199   4.851 -0.5228 -0.0070  0.5173
 7595SOL    HW129784   5.571   6.231   4.767 -0.8612 -1.4531  0.1458
 7595SOL    HW229785   5.692   6.140   4.828 -0.9818 -0.8864  1.2362
 7596SOL     OW29786   6.118   4.182   6.978  0.4210  0.6775  0.7502
 7596SOL    HW129787   6.098   4.252   7.047  1.3021 -0.0819  1.8062
 7596SOL    HW229788   6.138   4.095   7.024  2.3352  0.4856 -0.4171
 7597SOL     OW29789   4.202   0.516   1.272  0.1837 -0.3936  0.0084
 7597SOL    HW129790   4.229   0.453   1.199  1.1933 -0.1041  0.1222
 7597SOL    HW229791   4.276   0.523   1.339 -0.7874 -0.7634  1.1441
 7598SOL     OW29792   5.952   1.965   2.545 -0.1686 -0.3632  0.5106
 7598SOL    HW129793   6.018   2.023   2.499 -0.5731 -1.4124 -1.4445
 7598SOL    HW229794   5.999   1.889   2.589  0.0661 -0.2980  0.3743
 7599SOL     OW29795   5.887   2.766   3.755  0.1756  0.7910 -0.4036
 7599SOL    HW129796   5.955   2.829   3.718 -0.9555  1.6336 -1.0759
 7599SOL    HW229797   5.811   2.818   3.794 -0.1916 -0.1408  0.1432
 7600SOL     OW29798   5.335   0.792   2.096 -0.8801 -0.5291 -0.0058
 7600SOL    HW129799   5.371   0.701   2.117 -1.2218 -0.9089 -0.9970
 7600SOL    HW229800   5.330   0.847   2.179  0.2611 -1.0859  0.4269
 7601SOL     OW29801   3.538   3.264   0.133  0.5185  0.0273  0.0026
 7601SOL    HW129802   3.462   3.211   0.095  0.9892  0.3251 -1.4195
 7601SOL    HW229803   3.624   3.218   0.110  0.8820  0.9377 -0.4598
 7602SOL     OW29804   6.839   3.225   4.747 -0.3450  0.1698  0.1858
 7602SOL    HW129805   6.780   3.306   4.748  0.5577  0.8285  0.4505
 7602SOL    HW229806   6.930   3.249   4.780 -0.6604 -1.4166  2.3718
 7603SOL     OW29807   2.079   5.765   3.239 -0.0575 -0.7766  0.3369
 7603SOL    HW129808   2.150   5.790   3.173  0.7149 -2.3057  0.5603
 7603SOL    HW229809   2.115   5.774   3.331 -0.8814  0.5966  0.5241
 7604SOL     OW29810   1.361   3.679   2.940 -0.0097  0.7901 -0.4334
 7604SOL    HW129811   1.370   3.681   3.039  0.5241 -1.6642 -0.3961
 7604SOL    HW229812   1.448   3.704   2.898  0.9669 -2.0637 -0.2166
 7605SOL     OW29813   1.331   0.079   3.617 -0.5148 -0.5016 -0.4314
 7605SOL    HW129814   1.353   0.170   3.652 -0.5021 -1.0737  1.0672
 7605SOL    HW229815   1.253   0.041   3.667 -0.1303 -1.5641 -0.6186
 7606SOL     OW29816   3.527   6.076   6.883  0.0066 -0.7274  0.2673
 7606SOL    HW129817   3.602   6.114   6.937  0.4718 -1.5854  0.2345
 7606SOL    HW229818   3.549   5.982   6.858 -0.9943 -0.9156  0.0858
 7607SOL     OW29819   5.616   3.442   5.942 -0.8292 -0.2572 -0.1497
 7607SOL    HW129820   5.563   3.521   5.913  1.7237  1.9295  0.9575
 7607SOL    HW229821   5.650   3.394   5.861  0.6530  1.9090 -0.8558
 7608SOL     OW29822   4.353   4.559   2.084  0.4940 -0.0063 -0.0059
 7608SOL    HW129823   4.450   4.579   2.101  0.0203  1.7741  0.7199
 7608SOL    HW229824   4.325   4.480   2.138  1.1685  0.3760  0.9211
 7609SOL     OW29825   5.178   4.903   0.309 -0.3034  0.0423  0.0293
 7609SOL    HW129826   5.130   4.974   0.360  0.4469  0.6940 -0.1559
 7609SOL    HW229827   5.267   4.938   0.280 -0.3457 -0.6343 -0.9302
 7610SOL     OW29828   4.229   0.302   4.792  0.3177 -0.2991  0.3937
 7610SOL    HW129829   4.314   0.278   4.837 -1.3116 -0.5651  3.4356
 7610SOL    HW229830   4.194   0.223   4.741  0.8517 -0.8013  0.8053
 7611SOL     OW29831   6.081   0.818   1.529  0.2773  0.0307 -0.1105
 7611SOL    HW129832   6.036   0.729   1.520  1.8136 -0.8008  0.1845
 7611SOL    HW229833   6.134   0.820   1.615  0.2373  1.2348 -0.1033
 7612SOL     OW29834   1.793   5.407   5.687 -0.1497 -0.3157 -0.1661
 7612SOL    HW129835   1.837   5.342   5.749 -1.3789 -0.9759  0.0351
 7612SOL    HW229836   1.698   5.419   5.714  0.3096  2.3270  0.3896
 7613SOL     OW29837   4.571   6.619   1.060 -0.0905 -0.1914  0.1512
 7613SOL    HW129838   4.617   6.686   1.002 -0.4875  0.8671  1.0586
 7613SOL    HW229839   4.631   6.593   1.136 -0.1891 -0.3859  0.1650
 7614SOL     OW29840   5.429   6.584   5.988 -0.1428  0.3713 -0.1526
 7614SOL    HW129841   5.456   6.670   5.944 -1.7253  0.5513 -0.8222
 7614SOL    HW229842   5.492   6.511   5.961  1.2431  1.3182  0.4617
 7615SOL     OW29843   6.984   1.577   0.883  0.0790 -0.0785 -0.5521
 7615SOL    HW129844   6.930   1.657   0.909 -0.4396 -0.8251  0.6670
 7615SOL    HW229845   6.938   1.529   0.808 -2.2384 -2.0435  2.0221
 7616SOL     OW29846   4.879   3.826   6.647 -0.4525 -0.2325 -0.6346
 7616SOL    HW129847   4.798   3.865   6.603  0.1315  1.3070 -0.3853
 7616SOL    HW229848   4.938   3.900   6.679 -0.7764 -1.3128  2.6187
 7617SOL     OW29849   5.945   6.074   6.779  0.0633  0.2873 -0.7349
 7617SOL    HW129850   5.863   6.087   6.723 -0.0015  0.7189 -0.5392
 7617SOL    HW229851   5.949   5.978   6.809  0.5615 -0.1602 -2.1968
 7618SOL     OW29852   6.443   0.584   0.023  0.2882  0.0169 -0.3669
 7618SOL    HW129853   6.390   0.663   0.052  0.4713  0.2300 -0.6139
 7618SOL    HW229854   6.540   0.610   0.014 -0.0090  0.3764 -2.7818
 7619SOL     OW29855   3.993   0.665   1.560 -0.4153 -0.1838  0.1689
 7619SOL    HW129856   3.945   0.581   1.535  1.4027 -1.2063  0.0366
 7619SOL    HW229857   4.066   0.644   1.625  0.1362  1.2663  0.0367
 7620SOL     OW29858   6.532   4.598   3.510  0.1493  0.2889  0.3748
 7620SOL    HW129859   6.606   4.655   3.476 -0.6730  0.8598 -0.5112
 7620SOL    HW229860   6.563   4.504   3.518  0.8967  0.4736 -0.2383
 7621SOL     OW29861   5.798   5.223   0.519  0.7933 -0.4437  0.1846
 7621SOL    HW129862   5.774   5.153   0.452 -2.8552  1.2531 -0.3992
 7621SOL    HW229863   5.824   5.307   0.472 -0.2072  0.2671  0.8895
 7622SOL     OW29864   0.353   4.235   5.540 -0.5961 -0.2195  0.0830
 7622SOL    HW129865   0.273   4.188   5.577 -0.8876  0.3053  0.1290
 7622SOL    HW229866   0.435   4.180   5.557 -0.9412 -0.7354  0.0771
 7623SOL     OW29867   2.785   5.664   4.309  0.4456 -0.5294  0.0537
 7623SOL    HW129868   2.726   5.651   4.230  0.3237 -0.4796  0.1364
 7623SOL    HW229869   2.735   5.644   4.393  0.6349 -0.7786  0.1081
 7624SOL     OW29870   1.423   3.341   0.679  0.2584 -0.5936 -0.2294
 7624SOL    HW129871   1.379   3.417   0.632  1.5258 -1.0353 -2.1577
 7624SOL    HW229872   1.511   3.371   0.717 -0.4911 -0.3924  1.4107
 7625SOL     OW29873   0.428   5.813   5.106  0.3491  0.2090 -0.1985
 7625SOL    HW129874   0.459   5.899   5.065  2.0950 -0.2456  0.1366
 7625SOL    HW229875   0.488   5.739   5.078  1.5393 -0.1451  3.0229
 7626SOL     OW29876   4.769   0.285   4.235 -0.3567 -0.3338 -0.0824
 7626SOL    HW129877   4.796   0.266   4.140  0.5484  1.9603 -0.3053
 7626SOL    HW229878   4.824   0.360   4.271 -0.3973 -1.4648  2.4282
 7627SOL     OW29879   4.258   3.260   2.521  0.0582  0.7461  0.4672
 7627SOL    HW129880   4.210   3.173   2.511  0.9674  0.1539  1.1013
 7627SOL    HW229881   4.224   3.308   2.602  1.5332 -0.3653  1.7881
 7628SOL     OW29882   4.319   5.672   5.365  0.8203  0.0129  0.1417
 7628SOL    HW129883   4.407   5.686   5.412  0.9082 -0.1801  0.0347
 7628SOL    HW229884   4.245   5.675   5.431  0.5380  4.0957 -0.2108
 7629SOL     OW29885   1.066   1.222   3.025  0.2872 -0.2632 -0.3935
 7629SOL    HW129886   0.968   1.218   3.041  0.0171  0.0748 -1.9609
 7629SOL    HW229887   1.114   1.204   3.111 -1.1398  0.7497  0.6251
 7630SOL     OW29888   2.074   5.896   5.915 -0.5140 -0.3755 -0.1843
 7630SOL    HW129889   2.139   5.932   5.849 -1.2982  1.6252  0.1186
 7630SOL    HW229890   2.123   5.872   5.999  0.0063 -0.0027 -0.3757
 7631SOL     OW29891   5.285   5.362   6.350  0.2603  0.0515  0.3448
 7631SOL    HW129892   5.326   5.433   6.407  0.1713 -0.8624  1.5856
 7631SOL    HW229893   5.272   5.396   6.257  0.6698  1.4804  0.8019
 7632SOL     OW29894   2.264   3.598   1.262 -0.7305 -0.3601  1.0867
 7632SOL    HW129895   2.315   3.591   1.348  1.2799  2.0484  0.1523
 7632SOL    HW229896   2.295   3.526   1.200 -0.5801 -0.7370  1.5961
 7633SOL     OW29897   5.533   0.420   6.227  0.3385 -0.4075 -0.1559
 7633SOL    HW129898   5.608   0.460   6.280  0.0127  0.0563 -0.0388
 7633SOL    HW229899   5.556   0.326   6.201  0.4005 -0.7145  1.0049
 7634SOL     OW29900   7.189   2.423   5.477 -0.2175  0.2543 -0.6154
 7634SOL    HW129901   7.284   2.434   5.449 -0.4072  2.2340 -0.5633
 7634SOL    HW229902   7.173   2.329   5.506  1.2298 -0.5919 -2.4403
 7635SOL     OW29903   6.769   2.562   5.012 -0.2176 -0.1004 -0.1925
 7635SOL    HW129904   6.710   2.558   5.093  1.3798  1.0146  1.0390
 7635SOL    HW229905   6.860   2.594   5.038  0.8173 -1.3444 -2.1599
 7636SOL     OW29906   0.483   3.190   6.704  0.0477  0.5380  0.1198
 7636SOL    HW129907   0.444   3.178   6.796  1.3076 -0.2749  0.5619
 7636SOL    HW229908   0.437   3.129   6.640 -1.6501  1.9545 -0.0464
 7637SOL     OW29909   0.839   5.049   3.808 -0.1728 -0.0222  0.0156
 7637SOL    HW129910   0.821   4.951   3.809 -0.6955  0.0755  0.0993
 7637SOL    HW229911   0.753   5.099   3.799  0.0270  0.4468  0.6811
 7638SOL     OW29912   5.636   2.724   3.301  0.5257  0.6178 -0.0422
 7638SOL    HW129913   5.616   2.670   3.220 -0.5282  1.9212 -0.6770
 7638SOL    HW229914   5.723   2.773   3.288 -0.0769  1.5130 -0.7622
 7639SOL     OW29915   2.854   1.525   6.834  0.3550 -0.0240  0.1235
 7639SOL    HW129916   2.829   1.579   6.914 -0.1481 -0.3853  0.2128
 7639SOL    HW229917   2.802   1.440   6.834 -1.2253  0.8946 -1.6802
 7640SOL     OW29918   4.063   5.721   6.838 -0.7439 -0.5356 -0.3103
 7640SOL    HW129919   4.031   5.632   6.870 -2.0617  0.3521  0.8436
 7640SOL    HW229920   4.027   5.737   6.746 -0.7306 -1.0594 -0.4128
 7641SOL     OW29921   3.745   2.195   5.632  0.4832 -0.2942 -0.0006
 7641SOL    HW129922   3.768   2.102   5.601 -0.7595 -0.5759 -0.1131
 7641SOL    HW229923   3.674   2.190   5.702  0.8459  0.5463  0.4333
 7642SOL     OW29924   3.702   3.523   3.894 -0.2534  0.0125 -0.0524
 7642SOL    HW129925   3.603   3.528   3.881 -0.3453 -1.0030  0.2003
 7642SOL    HW229926   3.742   3.470   3.819 -0.1030 -0.9754  0.7197
 7643SOL     OW29927   4.299   1.273   6.387  0.1270  0.4524  0.4873
 7643SOL    HW129928   4.398   1.287   6.383  0.1442  0.4701  0.9361
 7643SOL    HW229929   4.278   1.176   6.373  0.1088  0.6660 -1.0485
 7644SOL     OW29930   6.723   2.718   0.298 -0.2667 -0.2038 -0.1312
 7644SOL    HW129931   6.801   2.773   0.327  0.9820 -2.4893  0.9599
 7644SOL    HW229932   6.755   2.629   0.265 -2.2411 -0.3123 -1.8262
 7645SOL     OW29933   6.271   0.837   5.849 -0.4007  0.0510  0.2652
 7645SOL    HW129934   6.232   0.766   5.791 -1.7331  0.7595  0.2602
 7645SOL    HW229935   6.369   0.846   5.831 -0.4146 -1.1340 -0.3933
 7646SOL     OW29936   5.044   1.123   3.425  0.4674 -0.2204 -0.3337
 7646SOL    HW129937   4.947   1.100   3.415  0.2890  0.2549  0.3074
 7646SOL    HW229938   5.063   1.207   3.374  0.9313 -1.2868 -1.9496
 7647SOL     OW29939   6.289   7.089   6.974 -0.0664 -0.2212  0.4724
 7647SOL    HW129940   6.316   7.022   6.906 -0.1447  1.9422 -1.7508
 7647SOL    HW229941   6.195   7.071   7.004 -1.1724  0.6212 -2.3348
 7648SOL     OW29942   6.695   3.308   2.415  0.5600  0.1227 -0.1087
 7648SOL    HW129943   6.659   3.231   2.468  0.7283  0.0140 -0.1486
 7648SOL    HW229944   6.756   3.362   2.473 -0.9051  1.2241  0.4221
 7649SOL     OW29945   2.347   0.353   1.223  0.1289  0.2338 -0.0574
 7649SOL    HW129946   2.252   0.384   1.217  0.2688  0.5669 -0.5443
 7649SOL    HW229947   2.375   0.354   1.319  0.2382  1.9562 -0.0906
 7650SOL     OW29948   0.782   3.897   6.463 -0.2880 -0.3541  0.3755
 7650SOL    HW129949   0.705   3.927   6.408  1.4530  1.1675 -1.3148
 7650SOL    HW229950   0.815   3.809   6.430 -1.0887 -0.8507  0.8920
 7651SOL     OW29951   7.073   3.180   6.134 -0.5380 -0.3637  0.6992
 7651SOL    HW129952   7.022   3.143   6.211 -1.7421 -0.3470 -0.0879
 7651SOL    HW229953   7.044   3.135   6.049 -1.1442  1.5210 -0.1205
 7652SOL     OW29954   4.016   3.152   6.536  0.2072 -0.0934  0.1815
 7652SOL    HW129955   4.035   3.121   6.629 -0.6134  1.0885  0.7593
 7652SOL    HW229956   4.094   3.132   6.478 -0.0427 -2.6557  0.6561
 7653SOL     OW29957   6.362   6.312   0.836  0.5052  0.2130 -0.0920
 7653SOL    HW129958   6.350   6.245   0.763 -1.0973  1.5056 -1.0283
 7653SOL    HW229959   6.423   6.385   0.806  1.1001 -0.0757  0.4146
 7654SOL     OW29960   2.062   4.464   6.895 -0.1056 -0.0022  0.0527
 7654SOL    HW129961   2.117   4.381   6.886 -0.9719 -0.5399 -0.4203
 7654SOL    HW229962   2.100   4.522   6.967  0.3241 -0.9596  0.6093
 7655SOL     OW29963   1.236   4.004   6.194 -0.3624 -0.2293 -0.7546
 7655SOL    HW129964   1.156   3.993   6.135 -2.1192 -1.2354  1.6996
 7655SOL    HW229965   1.237   3.931   6.263  0.4520  2.0427  1.7288
 7656SOL     OW29966   4.912   1.987   2.137  0.3051 -0.2394  0.3782
 7656SOL    HW129967   5.012   1.980   2.139  0.2699 -0.5457  1.7803
 7656SOL    HW229968   4.885   2.070   2.089  1.2499  0.1290  0.4760
 7657SOL     OW29969   5.030   2.369   1.752 -0.0131 -0.4412 -0.4736
 7657SOL    HW129970   4.932   2.392   1.747  0.3113  1.1288  0.0691
 7657SOL    HW229971   5.064   2.390   1.844 -0.0416 -4.6960  0.5868
 7658SOL     OW29972   1.322   3.257   0.328 -0.0060 -0.1881  0.5622
 7658SOL    HW129973   1.282   3.237   0.417  2.2959  0.1291  1.7042
 7658SOL    HW229974   1.350   3.171   0.284 -0.5375 -0.2945  0.4263
 7659SOL     OW29975   6.625   2.172   4.388 -0.2395 -0.0344 -0.0532
 7659SOL    HW129976   6.690   2.137   4.456 -1.9300  0.1652  1.7080
 7659SOL    HW229977   6.535   2.182   4.430 -0.4435  3.8174 -1.2666
 7660SOL     OW29978   1.879   5.650   6.515 -0.2007 -0.2135  0.6997
 7660SOL    HW129979   1.877   5.672   6.418 -1.1781 -2.1406  0.2525
 7660SOL    HW229980   1.820   5.714   6.565  1.2600  1.5454  0.2155
 7661SOL     OW29981   3.628   5.835   0.017  0.1649  0.2693 -0.2749
 7661SOL    HW129982   3.661   5.927  -0.007 -0.3066  0.5401  0.1178
 7661SOL    HW229983   3.642   5.819   0.114 -1.1906  0.5229 -0.0275
 7662SOL     OW29984   6.912   4.189   5.552 -0.5044 -0.0565  0.2912
 7662SOL    HW129985   6.920   4.139   5.466 -3.0250  0.2087 -0.1281
 7662SOL    HW229986   6.899   4.286   5.534  1.0844  0.3202  1.0426
 7663SOL     OW29987   7.103   1.767   0.166  0.3093 -0.7005 -0.3118
 7663SOL    HW129988   7.158   1.850   0.176 -0.5122  0.0316 -1.7785
 7663SOL    HW229989   7.011   1.784   0.201  0.9579 -1.9105  2.0925
 7664SOL     OW29990   5.889   0.161   4.132 -0.4544  0.1419  0.1631
 7664SOL    HW129991   5.944   0.100   4.076  0.3590  1.2356 -0.2468
 7664SOL    HW229992   5.803   0.180   4.085  0.6672  1.9035 -1.2394
 7665SOL     OW29993   0.968   3.901   2.297  0.8843  0.4296  0.4078
 7665SOL    HW129994   1.062   3.882   2.324  0.7110  0.5615  1.1174
 7665SOL    HW229995   0.928   3.966   2.362  0.6501  1.1977 -0.4992
 7666SOL     OW29996   2.182   1.181   3.113  0.7401 -0.1589 -0.5413
 7666SOL    HW129997   2.201   1.277   3.091 -2.8371  0.3041 -1.9993
 7666SOL    HW229998   2.123   1.142   3.042  0.0420 -2.7039  1.3594
 7667SOL     OW29999   0.675   2.573   7.047 -0.5318 -0.0531 -0.3708
 7667SOL    HW130000   0.768   2.563   7.011 -0.5405 -1.2930 -0.0716
 7667SOL    HW230001   0.649   2.490   7.096 -1.1571  0.9489  1.0426
 7668SOL     OW30002   7.143   0.042   6.194 -0.4734 -0.5898  0.8969
 7668SOL    HW130003   7.049   0.075   6.197 -0.1530  0.4144  0.0917
 7668SOL    HW230004   7.186   0.069   6.107 -0.0613 -2.7260  0.3799
 7669SOL     OW30005   1.305   2.015   1.967  0.0854  0.2260 -0.2732
 7669SOL    HW130006   1.267   2.108   1.966 -1.2492 -0.3046  0.2941
 7669SOL    HW230007   1.404   2.020   1.977 -0.1464  1.5466  1.6208
 7670SOL     OW30008   5.647   2.256   3.608 -0.0726 -0.2887  0.1812
 7670SOL    HW130009   5.668   2.347   3.570 -0.3398 -0.0433  0.6203
 7670SOL    HW230010   5.627   2.193   3.533  1.1137 -0.2482 -0.1882
 7671SOL     OW30011   2.341   0.037   5.611  0.2328  0.2107  0.1879
 7671SOL    HW130012   2.397  -0.036   5.650 -0.0023 -0.6503 -1.0652
 7671SOL    HW230013   2.245   0.010   5.611  0.1812  0.3683 -0.5977
 7672SOL     OW30014   4.475   4.306   4.761 -0.3996 -0.1003  0.0713
 7672SOL    HW130015   4.393   4.309   4.817  0.4241  0.2699  1.2809
 7672SOL    HW230016   4.553   4.279   4.818  0.6191  1.2087 -0.6843
 7673SOL     OW30017   2.187   3.528   3.118  0.1041  0.0008  0.0163
 7673SOL    HW130018   2.120   3.472   3.070 -0.3182 -1.0603  1.7726
 7673SOL    HW230019   2.148   3.558   3.206  1.9740 -0.8141  1.1576
 7674SOL     OW30020   5.564   1.811   4.309  0.2621 -0.3004  0.1862
 7674SOL    HW130021   5.494   1.837   4.375  2.6099 -1.4204  3.2308
 7674SOL    HW230022   5.583   1.888   4.248  0.3784  1.9074  2.9353
 7675SOL     OW30023   4.073   4.582   4.736  0.1334  0.3557  0.2967
 7675SOL    HW130024   4.068   4.645   4.659 -0.9623  0.5642  0.5263
 7675SOL    HW230025   4.017   4.501   4.717 -0.8888  0.8218  1.2423
 7676SOL     OW30026   6.450   5.471   5.696 -0.1822  0.2564 -0.0114
 7676SOL    HW130027   6.455   5.461   5.795  1.1754 -2.0171 -0.2784
 7676SOL    HW230028   6.355   5.459   5.666 -0.5676  0.7787  0.9842
 7677SOL     OW30029   2.827   2.080   2.443 -0.4006 -0.4562  0.2148
 7677SOL    HW130030   2.875   2.055   2.359  0.4922 -0.4066  0.7007
 7677SOL    HW230031   2.859   2.171   2.473 -2.1602  0.4064 -0.4703
 7678SOL     OW30032   3.378   2.878   4.380 -0.0726 -0.8343 -0.1977
 7678SOL    HW130033   3.471   2.901   4.353 -0.8570  2.4531 -0.3317
 7678SOL    HW230034   3.324   2.855   4.298  0.5427 -2.5905 -0.1336
 7679SOL     OW30035   3.946   3.506   2.032 -0.5085  0.4627  0.3282
 7679SOL    HW130036   3.919   3.423   1.982 -1.7220  1.6450 -1.0147
 7679SOL    HW230037   3.865   3.560   2.053  0.3168  1.5156  0.8334
 7680SOL     OW30038   6.653   3.030   3.347  0.1473  0.5915  0.0402
 7680SOL    HW130039   6.683   2.996   3.437  0.9632  0.3625 -0.3113
 7680SOL    HW230040   6.564   3.074   3.356  0.4350  0.9780  1.0500
 7681SOL     OW30041   3.117   1.985   7.125 -0.2166 -0.7736 -0.4172
 7681SOL    HW130042   3.105   2.077   7.089 -1.5219 -0.5950  0.4474
 7681SOL    HW230043   3.032   1.954   7.167  0.9304 -1.4139  1.5127
 7682SOL     OW30044   1.673   3.483   4.228  0.1044  0.2825  0.2331
 7682SOL    HW130045   1.624   3.406   4.188 -0.3484  1.2385 -1.0878
 7682SOL    HW230046   1.739   3.518   4.161  1.0606  0.3738  1.2110
 7683SOL     OW30047   6.565   5.795   5.869  0.6081  0.3591 -0.2113
 7683SOL    HW130048   6.604   5.760   5.784  1.8557 -2.2303  1.3209
 7683SOL    HW230049   6.634   5.789   5.942 -0.7360  1.5386  1.2054
 7684SOL     OW30050   5.846   2.668   0.048  0.0796 -0.1787  0.0466
 7684SOL    HW130051   5.868   2.575   0.018 -0.2454 -0.4867  0.7769
 7684SOL    HW230052   5.751   2.673   0.076  0.4231  0.0783  1.1887
 7685SOL     OW30053   5.048   6.569   6.138 -0.0535 -0.3468 -0.5190
 7685SOL    HW130054   5.077   6.542   6.046 -0.3117 -2.1822 -0.0834
 7685SOL    HW230055   5.120   6.624   6.181  0.4242 -0.1946 -1.4928
 7686SOL     OW30056   6.723   4.060   2.459 -0.1790  0.0034 -0.1911
 7686SOL    HW130057   6.745   4.077   2.363  0.8881 -0.9312 -0.1220
 7686SOL    HW230058   6.629   4.028   2.467  0.3967 -1.9708 -1.1433
 7687SOL     OW30059   2.791   5.238   7.305 -0.0795 -0.0197 -0.3912
 7687SOL    HW130060   2.723   5.206   7.239  0.9960 -0.6710 -1.2074
 7687SOL    HW230061   2.865   5.285   7.256  0.7462 -0.5355  0.3434
 7688SOL     OW30062   0.153   1.957   2.091  0.5591 -0.3267  0.4410
 7688SOL    HW130063   0.149   1.857   2.094  0.3793 -0.2899  1.9634
 7688SOL    HW230064   0.249   1.986   2.091  0.6115 -0.5032 -0.0400
 7689SOL     OW30065   2.413   0.805   0.944  0.0812  0.2888  0.4061
 7689SOL    HW130066   2.395   0.829   1.039 -1.1349  0.5995  0.0947
 7689SOL    HW230067   2.483   0.734   0.941 -0.1530  0.0047  1.5419
 7690SOL     OW30068   2.816   2.243   1.723  0.0416 -0.3396 -0.5395
 7690SOL    HW130069   2.754   2.177   1.764 -0.4766  0.5708  0.1756
 7690SOL    HW230070   2.763   2.311   1.672  0.5011 -0.0192 -0.5936
 7691SOL     OW30071   5.535   2.572   3.082 -0.2413  0.5141  0.3941
 7691SOL    HW130072   5.453   2.546   3.133  0.2274 -1.7645  0.0141
 7691SOL    HW230073   5.527   2.541   2.987  0.6122  1.2070  0.0864
 7692SOL     OW30074   0.688   3.325   5.178  0.3971  0.1264 -0.4358
 7692SOL    HW130075   0.711   3.355   5.085  0.6827 -0.6309 -0.6179
 7692SOL    HW230076   0.610   3.376   5.211  0.9056  1.0983 -0.7167
 7693SOL     OW30077   0.158   2.950   1.148 -0.1084  0.4595  0.0745
 7693SOL    HW130078   0.190   2.947   1.242 -3.9172 -0.5323  1.4293
 7693SOL    HW230079   0.166   2.859   1.107  0.9369  0.7459 -0.3849
 7694SOL     OW30080   5.747   4.944   4.256  0.3516 -0.2157 -0.2628
 7694SOL    HW130081   5.753   5.024   4.315  0.1834  0.4826 -1.1716
 7694SOL    HW230082   5.835   4.928   4.211  0.8477 -1.4891  1.0981
 7695SOL     OW30083   7.303   3.150   5.980  0.5555  0.7596 -0.1551
 7695SOL    HW130084   7.220   3.165   6.034  0.6748  0.2862  0.1676
 7695SOL    HW230085   7.304   3.057   5.944  0.9385  0.7656 -0.1694
 7696SOL     OW30086   6.856   6.975   7.155  0.0607 -0.0987  0.2102
 7696SOL    HW130087   6.834   7.019   7.243 -0.9876 -0.9434  0.3870
 7696SOL    HW230088   6.945   6.930   7.162 -0.1421 -0.4047  0.9432
 7697SOL     OW30089   4.223   0.874   0.983  0.2482  0.9311  0.4764
 7697SOL    HW130090   4.263   0.803   0.925  1.4591  0.5878  1.7008
 7697SOL    HW230091   4.137   0.840   1.021  1.4166 -0.4025  2.0339
 7698SOL     OW30092   1.426   2.210   5.273 -0.0372  0.4238 -0.2211
 7698SOL    HW130093   1.467   2.120   5.261 -1.3797 -0.0334 -1.6725
 7698SOL    HW230094   1.463   2.273   5.204 -0.2364  0.5739 -0.1912
 7699SOL     OW30095   3.355   5.665   2.803  0.3182  1.1390 -0.2908
 7699SOL    HW130096   3.426   5.736   2.807 -0.8233  2.3586 -1.1188
 7699SOL    HW230097   3.383   5.593   2.739  2.3812 -0.1934  2.0502
 7700SOL     OW30098   7.116   0.604   2.787  0.4815  0.0707 -0.1556
 7700SOL    HW130099   7.060   0.572   2.711  0.1019  0.9792 -0.2685
 7700SOL    HW230100   7.143   0.527   2.844 -1.5241 -0.2906  0.3305
 7701SOL     OW30101   0.146   6.357   4.486  0.4270  0.3434  0.6608
 7701SOL    HW130102   0.124   6.373   4.390 -1.9168  0.5511  1.1990
 7701SOL    HW230103   0.074   6.397   4.544 -0.9476 -4.1715  2.3250
 7702SOL     OW30104   4.686   5.683   2.458  0.1146  0.6490 -0.6334
 7702SOL    HW130105   4.766   5.698   2.400 -0.0914  1.2864 -0.7589
 7702SOL    HW230106   4.665   5.767   2.508  0.4806 -0.0021  0.6121
 7703SOL     OW30107   6.873   4.739   3.173  0.0061 -0.3142  0.3767
 7703SOL    HW130108   6.809   4.734   3.096  2.0303  1.5130 -1.5007
 7703SOL    HW230109   6.933   4.659   3.171  2.5235  1.5210 -2.3007
 7704SOL     OW30110   5.595   0.980   5.935  0.4924 -0.6828  0.3799
 7704SOL    HW130111   5.679   0.940   5.973  0.4489  0.7671  2.0674
 7704SOL    HW230112   5.610   1.005   5.839  2.3373  0.5528  0.9736
 7705SOL     OW30113   3.192   4.833   6.267 -0.4926  0.7099  0.2470
 7705SOL    HW130114   3.242   4.759   6.311  0.1961  1.5522  0.8898
 7705SOL    HW230115   3.243   4.864   6.187 -1.9409 -1.0999 -1.4512
 7706SOL     OW30116   7.354   2.995   4.420 -0.0573 -0.0417 -0.2460
 7706SOL    HW130117   7.414   2.915   4.422 -0.3199 -0.2024  1.2171
 7706SOL    HW230118   7.261   2.968   4.442  0.1520  0.9223  1.9372
 7707SOL     OW30119   5.168   4.881   4.673 -0.3195 -0.4614 -0.4790
 7707SOL    HW130120   5.138   4.788   4.656  1.6157 -1.3059  0.6188
 7707SOL    HW230121   5.230   4.883   4.751 -1.4660  1.9595  0.4292
 7708SOL     OW30122   2.280   5.159   0.810  0.0877 -0.0210 -0.1244
 7708SOL    HW130123   2.318   5.252   0.807  0.5974 -0.0814  2.9575
 7708SOL    HW230124   2.206   5.152   0.743  1.7241  1.7981 -2.2625
 7709SOL     OW30125   7.315   4.201   6.978  0.4509 -0.4627  0.3092
 7709SOL    HW130126   7.268   4.150   7.050  1.3204 -1.0217  0.4859
 7709SOL    HW230127   7.248   4.237   6.913 -0.3094 -0.2127  1.2340
 7710SOL     OW30128   6.829   0.348   5.051  0.5042 -0.1617  0.4291
 7710SOL    HW130129   6.735   0.382   5.041  0.8897  1.3462  1.8289
 7710SOL    HW230130   6.844   0.319   5.145  0.7632 -2.5365 -0.3115
 7711SOL     OW30131   5.678   3.073   2.340  0.3487 -0.2905  0.2166
 7711SOL    HW130132   5.636   2.983   2.353  1.4206 -0.8053  0.1839
 7711SOL    HW230133   5.698   3.114   2.429  0.7502 -0.5137  0.2316
 7712SOL     OW30134   6.390   4.634   1.439  0.2365 -0.5963 -0.4588
 7712SOL    HW130135   6.345   4.709   1.488  3.5066  0.9684  0.3248
 7712SOL    HW230136   6.411   4.664   1.345  0.4432 -0.9480 -0.5256
 7713SOL     OW30137   0.257   4.974   4.565  0.1829 -0.0019  0.3300
 7713SOL    HW130138   0.191   4.910   4.605 -0.1103  0.4364  0.5547
 7713SOL    HW230139   0.311   5.016   4.638 -0.5040  0.9624  0.2893
 7714SOL     OW30140   0.390   3.175   6.980 -0.0555 -0.0491  0.4975
 7714SOL    HW130141   0.314   3.240   6.990  0.3347  0.5337 -0.3216
 7714SOL    HW230142   0.365   3.089   7.025 -0.7830  0.4827  1.1481
 7715SOL     OW30143   5.316   3.956   2.885  0.8366 -0.0458 -0.2372
 7715SOL    HW130144   5.413   3.971   2.864  0.7285  1.2403  0.1409
 7715SOL    HW230145   5.302   3.860   2.911  1.7970 -0.5121 -1.4028
 7716SOL     OW30146   5.886   2.838   2.314  0.0343  0.7327 -0.0581
 7716SOL    HW130147   5.984   2.855   2.324  0.3115 -0.1417 -1.2964
 7716SOL    HW230148   5.850   2.896   2.241 -0.1622  0.2896 -0.3131
 7717SOL     OW30149   4.380   0.332   5.160 -0.5277  0.1764  0.1363
 7717SOL    HW130150   4.318   0.364   5.089 -1.1335 -2.1091 -0.4102
 7717SOL    HW230151   4.328   0.307   5.241 -0.0693  0.5155  0.5370
 7718SOL     OW30152   4.751   6.881   3.075  0.1111 -0.1159  0.1511
 7718SOL    HW130153   4.786   6.809   3.015  2.5890  0.7162  0.5524
 7718SOL    HW230154   4.754   6.968   3.027 -0.4826  0.1349  0.5631
 7719SOL     OW30155   3.510   1.678   7.004  0.5571  0.7183  0.2581
 7719SOL    HW130156   3.417   1.713   7.016  1.1334  2.0979  0.8379
 7719SOL    HW230157   3.506   1.583   6.972 -1.0421  0.7465  0.3176
 7720SOL     OW30158   6.742   2.712   7.125 -0.3035 -0.0525  0.8193
 7720SOL    HW130159   6.800   2.794   7.129 -0.6436  0.2131  0.2460
 7720SOL    HW230160   6.678   2.713   7.202  1.1911 -0.9115  2.1224
 7721SOL     OW30161   5.434   2.587   3.797 -0.1426  0.1273 -0.0557
 7721SOL    HW130162   5.356   2.645   3.819  0.0066  0.7059 -1.0172
 7721SOL    HW230163   5.445   2.582   3.698 -0.1984 -1.6101  0.0153
 7722SOL     OW30164   3.754   5.485   2.321  0.1199 -0.0521  0.4247
 7722SOL    HW130165   3.725   5.440   2.237 -1.5046 -1.4286  1.6722
 7722SOL    HW230166   3.805   5.421   2.378 -0.4509  0.2785  1.3301
 7723SOL     OW30167   6.717   0.636   0.356  0.6489  0.4060  0.3390
 7723SOL    HW130168   6.630   0.614   0.311  0.1360  0.8187  1.1361
 7723SOL    HW230169   6.714   0.606   0.451  1.7054 -0.3757  0.1457
 7724SOL     OW30170   7.232   3.519   5.869 -0.1400 -0.4213  0.7777
 7724SOL    HW130171   7.281   3.433   5.865  0.2402 -0.1809  0.2465
 7724SOL    HW230172   7.264   3.573   5.947  0.5271 -0.2154  0.3672
 7725SOL     OW30173   6.251   6.545   0.339 -0.1532  0.1738 -0.2005
 7725SOL    HW130174   6.327   6.513   0.395  1.5322 -0.1797 -2.6345
 7725SOL    HW230175   6.189   6.469   0.319  0.1444 -0.0510 -0.2531
 7726SOL     OW30176   3.232   2.002   2.475 -0.5608  0.5145 -0.1205
 7726SOL    HW130177   3.261   1.917   2.517  0.5517 -0.2319 -2.3145
 7726SOL    HW230178   3.309   2.066   2.472 -1.3489  1.5857  1.3858
 7727SOL     OW30179   0.988   4.176   4.931  0.1304  0.3195  0.0321
 7727SOL    HW130180   0.959   4.127   5.013 -1.0946 -0.7084 -0.9815
 7727SOL    HW230181   1.008   4.271   4.953 -0.6726  0.1707  1.4152
 7728SOL     OW30182   2.216   0.007   1.404 -0.2283  0.1403 -0.1271
 7728SOL    HW130183   2.300   0.053   1.433  0.1601 -0.1420 -0.7905
 7728SOL    HW230184   2.215   0.001   1.305  0.7262 -3.1137 -0.0010
 7729SOL     OW30185   6.934   4.531   0.960 -0.0496  0.1498 -0.9566
 7729SOL    HW130186   6.837   4.554   0.965 -0.3837 -1.2685 -0.6038
 7729SOL    HW230187   6.982   4.570   1.039 -1.2598 -3.3226  1.6015
 7730SOL     OW30188   2.282   0.633   3.127  0.0535  0.1951 -0.5643
 7730SOL    HW130189   2.230   0.710   3.090 -1.2149 -0.0141  0.7296
 7730SOL    HW230190   2.248   0.548   3.086  0.2001  0.1596 -0.6119
 7731SOL     OW30191   5.571   3.936   1.395 -0.2494  0.3780 -0.2697
 7731SOL    HW130192   5.591   3.856   1.338 -2.5061  0.3537 -1.0697
 7731SOL    HW230193   5.610   4.017   1.352 -1.4641  0.2795 -1.6073
 7732SOL     OW30194   3.528   1.031   2.433  0.1331  0.1873  0.1180
 7732SOL    HW130195   3.503   0.938   2.458  1.8959  0.3420  2.5762
 7732SOL    HW230196   3.627   1.040   2.432 -0.0124  1.8934 -0.7221
 7733SOL     OW30197   1.070   1.091   3.885 -0.8607  0.0439 -0.5351
 7733SOL    HW130198   1.036   1.184   3.898 -0.5089  0.0884  0.0776
 7733SOL    HW230199   1.166   1.087   3.911 -0.9960 -0.5994 -0.1224
 7734SOL     OW30200   7.320   4.154   5.800  0.4738  0.5123 -0.0451
 7734SOL    HW130201   7.387   4.221   5.834  2.1909  0.1740 -2.6365
 7734SOL    HW230202   7.228   4.182   5.830  1.6088  1.6033  2.6121
 7735SOL     OW30203   2.051   1.548   1.116  0.1166 -0.0817 -0.0082
 7735SOL    HW130204   1.978   1.511   1.173 -1.1497  1.6681 -0.4663
 7735SOL    HW230205   2.012   1.597   1.038  1.7902  0.3055 -0.6295
 7736SOL     OW30206   1.971   2.409   2.197  0.3056  0.2118  0.0175
 7736SOL    HW130207   2.034   2.486   2.187 -0.7868  1.1952  0.5409
 7736SOL    HW230208   1.877   2.444   2.205 -0.2339 -1.1921 -0.0620
 7737SOL     OW30209   7.155   7.157   7.110  0.0124  0.3276  0.1023
 7737SOL    HW130210   7.132   7.069   7.068 -3.2628  1.9349 -1.6856
 7737SOL    HW230211   7.134   7.154   7.208  1.6312 -1.4208  0.4174
 7738SOL     OW30212   1.181   2.730   2.649  0.2949  0.2532  0.3322
 7738SOL    HW130213   1.245   2.656   2.671  0.5374  0.6734  1.0250
 7738SOL    HW230214   1.088   2.701   2.671  0.2377 -0.3714 -0.7082
 7739SOL     OW30215   2.405   6.443   1.610 -0.1181  0.2769  0.3842
 7739SOL    HW130216   2.416   6.534   1.650 -0.4822 -0.0558  1.2579
 7739SOL    HW230217   2.313   6.409   1.629  0.9014 -1.4337  2.4833
 7740SOL     OW30218   6.097   3.041   6.870  0.1409 -0.5208 -0.1030
 7740SOL    HW130219   6.016   3.047   6.811 -1.0309  1.9114  1.6797
 7740SOL    HW230220   6.117   2.945   6.890 -1.7274 -1.1930 -1.3353
 7741SOL     OW30221   4.948   3.024   2.356 -0.2346 -0.4467  0.7345
 7741SOL    HW130222   4.864   3.047   2.307 -0.4898 -3.3790 -0.2985
 7741SOL    HW230223   5.018   3.092   2.336 -2.4674  2.2675  1.9322
 7742SOL     OW30224   4.195   6.918   6.381  0.0935  0.4272 -0.1341
 7742SOL    HW130225   4.135   6.914   6.301  1.6595  1.5707 -1.4199
 7742SOL    HW230226   4.254   6.999   6.373  1.4588 -0.4114  1.3324
 7743SOL     OW30227   4.513   7.181   2.582 -0.5990 -0.0343  0.3038
 7743SOL    HW130228   4.461   7.224   2.655 -0.7007 -0.9571  0.7710
 7743SOL    HW230229   4.598   7.142   2.618 -0.2175  0.2875 -0.2227
 7744SOL     OW30230   1.833   1.621   1.795 -0.7177  0.1755 -0.4821
 7744SOL    HW130231   1.857   1.709   1.756  2.0597 -0.2315  0.2128
 7744SOL    HW230232   1.804   1.633   1.890  0.7791  0.2445 -0.0189
 7745SOL     OW30233   3.410   0.632   0.556  0.5232 -0.6692  0.2573
 7745SOL    HW130234   3.388   0.662   0.463  0.9355  0.4873  0.5321
 7745SOL    HW230235   3.465   0.701   0.601 -1.3364 -0.3402  2.0685
 7746SOL     OW30236   1.605   2.197   0.957  0.2641 -0.2153 -0.1146
 7746SOL    HW130237   1.524   2.144   0.981  0.1204 -0.5872 -1.4143
 7746SOL    HW230238   1.667   2.199   1.036  0.1054 -2.0000  0.0762
 7747SOL     OW30239   6.626   3.110   0.005  0.0200 -0.0123 -0.2917
 7747SOL    HW130240   6.679   3.154  -0.068 -1.1525  1.1890 -0.4339
 7747SOL    HW230241   6.605   3.176   0.076  0.5790 -1.0229  0.8166
 7748SOL     OW30242   1.697   2.361   2.903 -0.2578 -0.1387  0.2094
 7748SOL    HW130243   1.636   2.362   2.824 -1.8173  0.4282  1.3889
 7748SOL    HW230244   1.730   2.268   2.918  1.4618  0.0529 -2.1415
 7749SOL     OW30245   0.680   1.131   0.787  0.6347  0.8804 -0.0993
 7749SOL    HW130246   0.648   1.224   0.804  0.1050  0.9446 -1.3584
 7749SOL    HW230247   0.774   1.134   0.752  0.5999  0.9470 -0.1873
 7750SOL     OW30248   3.553   0.141   6.356  0.0578  0.0290  0.5257
 7750SOL    HW130249   3.513   0.158   6.447 -0.8044  0.7125  0.0283
 7750SOL    HW230250   3.611   0.218   6.330  0.7805 -0.4353  0.7417
 7751SOL     OW30251   7.124   3.216   4.756  0.0911  0.4297  0.0466
 7751SOL    HW130252   7.203   3.183   4.807 -0.4394 -1.5964 -0.4160
 7751SOL    HW230253   7.106   3.156   4.679 -2.1049  0.6539  0.3463
 7752SOL     OW30254   0.395   5.079   4.771 -0.7058 -0.2136  0.4863
 7752SOL    HW130255   0.334   5.110   4.843 -0.5274  0.5178  0.3327
 7752SOL    HW230256   0.489   5.081   4.804 -0.6887 -0.5334  0.4561
 7753SOL     OW30257   4.531   0.466   2.648  0.3347 -0.5671  0.4728
 7753SOL    HW130258   4.454   0.530   2.656  0.2345 -0.5783 -0.3206
 7753SOL    HW230259   4.521   0.413   2.563  1.3882 -0.3437  0.2059
 7754SOL     OW30260   2.944   0.828   1.980  0.2200  0.3013  0.1674
 7754SOL    HW130261   2.959   0.751   1.918  0.2334  0.3352  0.1290
 7754SOL    HW230262   3.032   0.867   2.006  0.1922  0.5620 -0.1356
 7755SOL     OW30263   1.993   4.632   2.320  0.1770 -0.3900  0.2243
 7755SOL    HW130264   1.947   4.552   2.281  0.5728  0.3083 -1.7007
 7755SOL    HW230265   1.956   4.715   2.278  1.5561  0.3098  0.3827
 7756SOL     OW30266   4.900   0.070   6.595 -0.0463  0.1925 -0.0128
 7756SOL    HW130267   4.964   0.146   6.582  0.1760  0.1371  0.7401
 7756SOL    HW230268   4.839   0.090   6.671 -2.3185  1.1606 -2.0506
 7757SOL     OW30269   4.177   3.686   3.578 -0.2212 -0.0944  0.4858
 7757SOL    HW130270   4.117   3.613   3.610  0.7046 -1.4203 -0.7542
 7757SOL    HW230271   4.145   3.718   3.488  0.2774 -0.0348  0.3319
 7758SOL     OW30272   4.352   1.267   4.844  0.4123 -0.0518  0.4518
 7758SOL    HW130273   4.298   1.321   4.779  0.3990 -0.8768 -0.2427
 7758SOL    HW230274   4.333   1.170   4.829 -0.4957 -0.2130  2.4904
 7759SOL     OW30275   4.969   2.223   3.341  0.0943  0.2193 -0.5672
 7759SOL    HW130276   4.925   2.277   3.270 -0.4661 -1.7939 -1.7896
 7759SOL    HW230277   4.932   2.249   3.431 -1.2795  0.7703 -1.2744
 7760SOL     OW30278   4.970   4.931   6.929  0.2463  0.3982  0.0686
 7760SOL    HW130279   5.007   5.023   6.940  2.3945 -0.4405  0.1743
 7760SOL    HW230280   5.035   4.875   6.878 -0.6720 -1.2822  0.6881
 7761SOL     OW30281   6.050   4.314   2.104  0.0843  0.3879 -0.7539
 7761SOL    HW130282   6.038   4.246   2.032  0.4761 -0.6613  0.1611
 7761SOL    HW230283   5.989   4.391   2.087 -1.9210 -1.1480 -0.6489
 7762SOL     OW30284   4.653   6.881   3.932 -0.4224 -0.4335 -0.1929
 7762SOL    HW130285   4.604   6.794   3.936  2.7473 -2.2380  1.8406
 7762SOL    HW230286   4.633   6.935   4.013 -0.2789 -0.4861 -0.1213
 7763SOL     OW30287   1.512   4.328   4.096 -0.3466  0.6312 -0.5785
 7763SOL    HW130288   1.440   4.271   4.057  0.3062 -0.9105  0.4046
 7763SOL    HW230289   1.476   4.380   4.174 -0.0826 -1.1858  0.7825
 7764SOL     OW30290   3.853   6.359   4.761 -0.0130  0.3353  0.3713
 7764SOL    HW130291   3.896   6.450   4.760 -1.1142  0.8762  0.8899
 7764SOL    HW230292   3.755   6.369   4.782  0.2951 -1.1514  2.6346
 7765SOL     OW30293   5.477   5.805   5.878 -0.0655 -0.3561  0.4142
 7765SOL    HW130294   5.570   5.767   5.876  0.3820  0.7482 -0.7293
 7765SOL    HW230295   5.469   5.872   5.952  0.3550  0.2529 -0.0796
 7766SOL     OW30296   0.079   1.980   6.200 -0.6237  0.3318  0.0140
 7766SOL    HW130297   0.164   1.939   6.166 -0.5503  1.6279 -1.3986
 7766SOL    HW230298   0.101   2.054   6.263 -0.7255  0.3521  0.0253
 7767SOL     OW30299   7.281   3.871   2.314  0.2839  0.1969 -0.1201
 7767SOL    HW130300   7.376   3.883   2.345  0.7609  0.2685 -1.5398
 7767SOL    HW230301   7.259   3.774   2.311  0.3155  0.1791  0.2148
 7768SOL     OW30302   2.153   1.138   3.391  0.1900  0.7317 -0.0225
 7768SOL    HW130303   2.224   1.180   3.448 -1.0246  3.1088 -0.1808
 7768SOL    HW230304   2.185   1.132   3.297  0.5015  0.9791  0.0648
 7769SOL     OW30305   4.927   5.043   3.026 -0.2990  0.5797 -0.2890
 7769SOL    HW130306   4.848   4.994   3.064  0.0285  0.9859  0.9017
 7769SOL    HW230307   4.895   5.103   2.952 -1.0191  0.2995 -0.2143
 7770SOL     OW30308   4.542   0.013   2.368  0.6008 -0.2042  0.1881
 7770SOL    HW130309   4.542  -0.064   2.432  1.5225 -0.8026 -0.5146
 7770SOL    HW230310   4.475  -0.004   2.296  0.3541 -0.0423  0.3749
 7771SOL     OW30311   3.174   5.660   5.145  0.1882 -0.0357  0.8659
 7771SOL    HW130312   3.208   5.664   5.239  2.7817  0.4016 -0.0595
 7771SOL    HW230313   3.179   5.566   5.112 -0.0584 -0.0710  0.9273
 7772SOL     OW30314   6.837   1.886   4.421  0.4406  0.4812 -0.1928
 7772SOL    HW130315   6.763   1.818   4.426 -0.6139  1.4314 -2.3171
 7772SOL    HW230316   6.817   1.961   4.484  1.5289 -1.0417  2.0429
 7773SOL     OW30317   0.583   2.816   5.388 -0.2886  0.0492  0.5589
 7773SOL    HW130318   0.659   2.871   5.423  0.6583 -1.1516  0.4306
 7773SOL    HW230319   0.598   2.796   5.292 -1.9636  1.7794 -0.0915
 7774SOL     OW30320   4.320   2.965   4.342  0.2440 -0.1210 -0.0477
 7774SOL    HW130321   4.236   2.932   4.384  0.6704  0.0523  0.9487
 7774SOL    HW230322   4.344   3.054   4.382 -0.9061  1.4563 -2.6912
 7775SOL     OW30323   4.816   3.162   3.192  0.4850 -0.1973  0.3421
 7775SOL    HW130324   4.789   3.107   3.272  0.0055 -0.0516  0.2811
 7775SOL    HW230325   4.851   3.101   3.121 -3.4885 -0.8555 -1.1729
 7776SOL     OW30326   7.244   2.169   1.758  0.1026 -0.1721 -0.2108
 7776SOL    HW130327   7.339   2.167   1.727 -0.5852  1.2612 -2.5173
 7776SOL    HW230328   7.241   2.199   1.853  1.9540 -0.2234 -0.1179
 7777SOL     OW30329   2.982   1.868   6.448  0.0267 -0.4251 -0.2823
 7777SOL    HW130330   2.995   1.949   6.506  0.3537 -0.6370 -0.0546
 7777SOL    HW230331   2.887   1.863   6.417 -0.1478 -0.3140  0.2385
 7778SOL     OW30332   4.808   2.528   1.896  0.4567  0.4768  0.1565
 7778SOL    HW130333   4.754   2.600   1.851 -0.1638  0.3917  0.7508
 7778SOL    HW230334   4.871   2.569   1.961  0.6508  0.5321 -0.0651
 7779SOL     OW30335   0.784   2.915   7.266 -0.3089 -0.2322  0.1651
 7779SOL    HW130336   0.685   2.901   7.261 -0.3302 -0.0221  0.0113
 7779SOL    HW230337   0.807   3.007   7.234  0.1636 -1.0881 -2.0565
 7780SOL     OW30338   4.214   3.754   4.941 -0.1045  0.2650  0.3687
 7780SOL    HW130339   4.121   3.768   4.975  0.1026 -1.3027  1.6609
 7780SOL    HW230340   4.280   3.791   5.007  0.2320 -0.2651  0.3358
 7781SOL     OW30341   3.340   1.298   5.054 -0.3779 -0.5688  0.6411
 7781SOL    HW130342   3.310   1.210   5.016  0.4183 -0.5261 -0.1092
 7781SOL    HW230343   3.293   1.372   5.006 -1.8337 -0.6085  1.9841
 7782SOL     OW30344   5.090   6.775   4.335 -0.3706 -0.9921 -0.0499
 7782SOL    HW130345   5.109   6.854   4.276 -1.2062  1.0691  2.3417
 7782SOL    HW230346   5.158   6.772   4.409 -0.3224 -2.5676 -0.1409
 7783SOL     OW30347   3.275   3.519   6.044  0.4410  0.4946  0.0592
 7783SOL    HW130348   3.268   3.587   6.117  0.2766 -1.2774  1.7518
 7783SOL    HW230349   3.213   3.443   6.064 -0.4434  0.5011 -2.5308
 7784SOL     OW30350   3.058   6.835   1.427  0.1446 -0.1235 -0.0768
 7784SOL    HW130351   3.072   6.934   1.419  0.1736  0.0491  1.9792
 7784SOL    HW230352   2.984   6.816   1.491  0.0152 -1.4367 -0.5928
 7785SOL     OW30353   0.597   0.619   1.730 -0.5373 -0.2718 -0.3977
 7785SOL    HW130354   0.503   0.586   1.726 -0.8699  0.7048 -0.7527
 7785SOL    HW230355   0.615   0.658   1.820 -0.8254  0.5443 -0.6840
 7786SOL     OW30356   5.858   1.758   2.776 -0.5255  0.1734 -0.2865
 7786SOL    HW130357   5.833   1.709   2.860  0.3432  0.8425  0.3660
 7786SOL    HW230358   5.775   1.793   2.733 -0.8538  1.1149  1.0842
 7787SOL     OW30359   1.002   6.165   4.509  0.0996 -0.4588 -0.1943
 7787SOL    HW130360   1.066   6.101   4.466  1.4575 -0.4809  1.8089
 7787SOL    HW230361   0.929   6.115   4.553 -0.5361 -0.4867 -1.2557
 7788SOL     OW30362   0.064   4.322   3.712 -0.2739  0.1593  0.1897
 7788SOL    HW130363  -0.030   4.289   3.721  0.1756 -1.5162 -0.9690
 7788SOL    HW230364   0.112   4.268   3.643  1.1690  1.8360 -0.1682
 7789SOL     OW30365   2.832   3.884   0.202 -0.1160 -0.1445  0.4039
 7789SOL    HW130366   2.738   3.912   0.183  0.0271  0.7301  0.9629
 7789SOL    HW230367   2.840   3.785   0.190 -0.7920 -0.0543 -0.9062
 7790SOL     OW30368   6.416   4.175   2.032  0.7166 -0.4354 -0.1603
 7790SOL    HW130369   6.341   4.161   1.967 -0.1573 -0.6494  0.8791
 7790SOL    HW230370   6.428   4.273   2.048  1.6960 -0.3117 -1.4955
 7791SOL     OW30371   5.746   1.385   0.678 -0.1798 -0.2011  0.9634
 7791SOL    HW130372   5.829   1.362   0.627  1.3327  1.4299  2.6175
 7791SOL    HW230373   5.719   1.307   0.734  0.3954 -0.6411  0.6348
 7792SOL     OW30374   3.885   3.140   1.849 -0.2888  0.5523  0.0697
 7792SOL    HW130375   3.931   3.052   1.865  1.8235  1.8751  1.5034
 7792SOL    HW230376   3.832   3.165   1.930 -2.4318 -0.2766 -1.0473
 7793SOL     OW30377   3.047   3.442   6.919  0.1284 -0.5107 -0.5989
 7793SOL    HW130378   3.107   3.437   6.999  1.4046 -1.8236 -1.6080
 7793SOL    HW230379   3.033   3.538   6.894  0.8297 -0.1454  0.3760
 7794SOL     OW30380   5.751   3.918   1.667  0.4536  0.2159 -0.0852
 7794SOL    HW130381   5.682   3.886   1.602  0.7304 -1.5609  0.4718
 7794SOL    HW230382   5.711   3.924   1.758  1.0190 -0.7698  0.2295
 7795SOL     OW30383   4.778   0.636   6.930  0.6402 -0.0213  0.1574
 7795SOL    HW130384   4.770   0.538   6.912  0.6540 -0.4369  2.2968
 7795SOL    HW230385   4.870   0.667   6.908  0.4464 -0.3420 -1.1462
 7796SOL     OW30386   4.902   3.068   2.949  0.3161  0.2880 -0.4521
 7796SOL    HW130387   4.836   3.000   2.915  0.6077  0.5556 -1.5587
 7796SOL    HW230388   4.885   3.156   2.906  1.5007  0.3225 -0.8813
 7797SOL     OW30389   4.393   2.332   3.306 -0.0820  0.0933  0.0393
 7797SOL    HW130390   4.303   2.293   3.288 -0.2962  0.8116 -0.4597
 7797SOL    HW230391   4.463   2.278   3.258 -0.0011 -1.8232  2.2410
 7798SOL     OW30392   6.656   7.177   3.529 -0.2404 -0.1335 -0.0566
 7798SOL    HW130393   6.727   7.207   3.592 -0.5646 -0.7103  0.5886
 7798SOL    HW230394   6.666   7.225   3.442  0.6857  0.0867  0.1684
 7799SOL     OW30395   4.272   5.226   6.518 -0.4563  0.0432  0.3692
 7799SOL    HW130396   4.239   5.134   6.499 -0.1725  0.2290 -1.0958
 7799SOL    HW230397   4.372   5.226   6.517 -0.4555  0.3439  0.4781
 7800SOL     OW30398   6.791   2.597   5.396 -0.7715  0.1801  0.5240
 7800SOL    HW130399   6.727   2.630   5.466 -2.2799 -1.6576  0.0560
 7800SOL    HW230400   6.740   2.573   5.314  0.5409 -1.1388  0.0801
 7801SOL     OW30401   6.316   4.442   1.955 -0.8412 -0.3745 -0.0017
 7801SOL    HW130402   6.233   4.396   1.987 -1.6745  1.6544  0.8931
 7801SOL    HW230403   6.292   4.532   1.918  1.0346  0.5997  1.0389
 7802SOL     OW30404   6.373   2.826   1.352 -0.2833  0.3388  0.2885
 7802SOL    HW130405   6.433   2.757   1.313 -1.6681 -0.5483 -0.2958
 7802SOL    HW230406   6.379   2.910   1.297  0.8543  0.4499  0.5774
 7803SOL     OW30407   6.008   2.739   2.710  0.0757  0.1558 -0.3794
 7803SOL    HW130408   6.075   2.752   2.783 -0.6159  2.9151 -0.1413
 7803SOL    HW230409   5.940   2.671   2.738  1.3695 -0.8249  0.3986
 7804SOL     OW30410   5.229   7.182   2.113  0.1880 -0.3282 -0.0810
 7804SOL    HW130411   5.274   7.095   2.094  2.7508  1.1284 -1.0459
 7804SOL    HW230412   5.274   7.226   2.191  0.9437  1.4599 -1.4787
 7805SOL     OW30413   6.422   0.711   6.224 -0.9649 -0.1781  0.1749
 7805SOL    HW130414   6.434   0.658   6.307  0.2091 -0.2547 -0.0256
 7805SOL    HW230415   6.381   0.654   6.153  0.7000 -0.9589 -0.1767
 7806SOL     OW30416   5.547   0.154   6.142 -0.7668 -0.3269 -0.1470
 7806SOL    HW130417   5.463   0.128   6.094 -2.1782 -0.0439  2.0901
 7806SOL    HW230418   5.615   0.082   6.129 -1.6279 -0.9747 -1.2923
 7807SOL     OW30419   5.348   2.774   3.286 -0.5604 -0.1557  0.1168
 7807SOL    HW130420   5.320   2.689   3.241 -1.1838 -0.5787  1.2950
 7807SOL    HW230421   5.444   2.769   3.311 -0.6495 -0.5770  0.3587
 7808SOL     OW30422   7.260   4.509   2.971 -0.1103 -0.6705 -0.0460
 7808SOL    HW130423   7.338   4.530   2.911 -0.6668  0.0590 -0.5265
 7808SOL    HW230424   7.180   4.486   2.914  0.0759 -2.6177  0.4517
 7809SOL     OW30425   1.396   2.736   1.451  0.2248  0.0091 -0.9741
 7809SOL    HW130426   1.436   2.825   1.430 -1.3948  1.3062  1.1731
 7809SOL    HW230427   1.298   2.739   1.436 -0.1209 -0.8056  0.9738
 7810SOL     OW30428   3.137   5.465   6.256 -0.6097 -0.0034  0.1172
 7810SOL    HW130429   3.049   5.418   6.244 -0.0606 -0.9186 -0.4533
 7810SOL    HW230430   3.164   5.461   6.352 -2.0435  1.8589  0.6170
 7811SOL     OW30431   6.727   0.083   2.315 -0.0895 -0.6640  0.3056
 7811SOL    HW130432   6.741   0.146   2.393  1.0287 -1.1043  0.4740
 7811SOL    HW230433   6.688  -0.002   2.348 -2.1054  0.1132  0.0042
 7812SOL     OW30434   2.343   4.599   3.756  0.6963 -0.1802  0.3789
 7812SOL    HW130435   2.398   4.598   3.673  2.8825  3.2628  1.6546
 7812SOL    HW230436   2.254   4.642   3.736  0.9383  0.0135 -0.3097
 7813SOL     OW30437   6.425   3.919   4.574 -0.1104  0.1003  0.5723
 7813SOL    HW130438   6.333   3.918   4.612 -0.1962  0.6609  0.3903
 7813SOL    HW230439   6.491   3.893   4.644 -0.3936 -0.1747  0.7365
 7814SOL     OW30440   3.653   6.296   5.718 -0.4392  0.7051 -0.1501
 7814SOL    HW130441   3.647   6.341   5.629 -0.9585  1.1372  0.1040
 7814SOL    HW230442   3.729   6.231   5.717 -0.8294  0.2689 -1.1043
 7815SOL     OW30443   3.950   3.397   6.219  0.0926 -0.2181  0.2025
 7815SOL    HW130444   4.047   3.420   6.217 -0.3066  1.4153 -1.3609
 7815SOL    HW230445   3.918   3.398   6.314  1.4839 -0.3087  0.6876
 7816SOL     OW30446   3.443   6.907   0.665  0.1743  0.0394  0.5834
 7816SOL    HW130447   3.517   6.937   0.605  0.4386  0.0158  0.8966
 7816SOL    HW230448   3.465   6.818   0.704  0.7181  0.7540  1.9434
 7817SOL     OW30449   2.853   4.503   1.397 -0.1280  0.2768  0.4016
 7817SOL    HW130450   2.806   4.426   1.438  1.1013 -0.0396  1.2458
 7817SOL    HW230451   2.952   4.493   1.409  0.1132  1.4704 -0.3727
 7818SOL     OW30452   1.803   2.606   4.318 -0.6570  0.1589  0.2653
 7818SOL    HW130453   1.745   2.531   4.286  0.6344 -0.4910 -0.6436
 7818SOL    HW230454   1.877   2.568   4.374 -0.0305  0.7477 -0.1570
 7819SOL     OW30455   5.491   5.813   5.009 -0.0492  0.2162 -0.1479
 7819SOL    HW130456   5.514   5.865   5.091  0.5500  0.3962 -0.4260
 7819SOL    HW230457   5.445   5.728   5.035  2.2576 -0.8793  0.5380
 7820SOL     OW30458   3.805   1.683   1.974 -0.3224 -0.0457 -0.3376
 7820SOL    HW130459   3.720   1.727   2.002  0.0745  0.5147 -0.0053
 7820SOL    HW230460   3.785   1.606   1.913 -1.0222  0.5413 -0.8464
 7821SOL     OW30461   5.164   3.629   5.924 -0.4577 -0.0808 -0.4335
 7821SOL    HW130462   5.130   3.589   5.839 -1.1060 -0.4960  0.0187
 7821SOL    HW230463   5.092   3.683   5.967 -0.5235 -0.8860  0.4769
 7822SOL     OW30464   5.886   1.542   1.461 -0.3441  0.2396 -0.0845
 7822SOL    HW130465   5.854   1.561   1.368  0.0468  0.0226 -0.2655
 7822SOL    HW230466   5.899   1.444   1.472 -0.6731  0.2353  0.2968
 7823SOL     OW30467   5.241   3.691   6.828  0.4306 -0.3895  0.0902
 7823SOL    HW130468   5.268   3.661   6.919  1.5692 -0.0376 -0.1285
 7823SOL    HW230469   5.312   3.666   6.762  0.8380  1.6792 -0.2835
 7824SOL     OW30470   4.869   1.714   2.480 -0.3058  0.3468  0.1174
 7824SOL    HW130471   4.907   1.797   2.521 -0.3220 -0.2583  1.3823
 7824SOL    HW230472   4.821   1.661   2.550 -1.3356 -0.1378 -0.9360
 7825SOL     OW30473   1.594   2.233   6.471  0.2990  0.2310 -0.4171
 7825SOL    HW130474   1.542   2.166   6.525 -0.3496  1.1943  0.1825
 7825SOL    HW230475   1.536   2.312   6.452  2.0671  2.1358  1.8187
 7826SOL     OW30476   4.315   2.636   5.757  0.4068 -0.4411  0.1954
 7826SOL    HW130477   4.398   2.593   5.794  0.6974 -0.7357 -0.7941
 7826SOL    HW230478   4.298   2.722   5.805  0.8987 -0.7207  0.8755
 7827SOL     OW30479   7.202   2.850   5.545 -0.0463  0.0982  0.1188
 7827SOL    HW130480   7.182   2.783   5.474  0.8038  1.9578 -1.9435
 7827SOL    HW230481   7.135   2.842   5.619 -1.5689 -1.1707 -1.3669
 7828SOL     OW30482   6.537   5.639   1.511 -0.4054 -0.3055  0.2239
 7828SOL    HW130483   6.443   5.658   1.539 -1.1194  0.2239 -2.3912
 7828SOL    HW230484   6.585   5.725   1.496 -0.4184 -0.5580 -1.3103
 7829SOL     OW30485   5.739   5.353   5.861  0.0563  0.4627 -0.3244
 7829SOL    HW130486   5.819   5.320   5.811  0.4233  1.0368 -0.1207
 7829SOL    HW230487   5.763   5.435   5.913 -0.4983  0.2710  0.2509
 7830SOL     OW30488   0.426   4.407   5.341  0.7012 -0.1048 -0.7079
 7830SOL    HW130489   0.405   4.357   5.426  0.5539 -1.0366 -1.2849
 7830SOL    HW230490   0.341   4.447   5.305  0.8478  0.7221 -0.1536
 7831SOL     OW30491   0.094   2.613   5.356 -0.1623 -1.0150  0.7497
 7831SOL    HW130492   0.011   2.652   5.317  0.2648 -1.2573 -0.4226
 7831SOL    HW230493   0.154   2.686   5.388 -0.0344 -0.7546 -0.0603
 7832SOL     OW30494   1.336   7.164   5.667 -0.1716  0.0304  0.6556
 7832SOL    HW130495   1.405   7.188   5.735  0.6077  1.4583 -0.6072
 7832SOL    HW230496   1.325   7.064   5.664  2.5179 -0.2823  0.2090
 7833SOL     OW30497   6.876   1.657   4.723  0.3694  0.3869 -1.1039
 7833SOL    HW130498   6.930   1.640   4.641  4.0813 -0.6349  1.4207
 7833SOL    HW230499   6.917   1.732   4.775 -3.0078  2.2744 -1.0351
 7834SOL     OW30500   6.812   2.784   6.726 -0.3912  0.1692  0.0763
 7834SOL    HW130501   6.718   2.814   6.705 -0.9967 -3.2559 -2.7299
 7834SOL    HW230502   6.873   2.863   6.727 -2.9152  2.1947 -0.5560
 7835SOL     OW30503   3.674   0.097   1.371  0.2693  0.0942  0.1705
 7835SOL    HW130504   3.730   0.086   1.453 -0.5478  1.6567  0.9527
 7835SOL    HW230505   3.686   0.017   1.311  1.6866 -0.5541  1.3056
 7836SOL     OW30506   2.270   2.232   4.779  0.5637 -0.3776 -0.2230
 7836SOL    HW130507   2.349   2.253   4.721  0.2751  0.3489 -0.3546
 7836SOL    HW230508   2.286   2.268   4.871  0.6404 -0.7561 -0.0865
 7837SOL     OW30509   4.325   5.332   2.827 -0.3532 -0.3493  0.1872
 7837SOL    HW130510   4.237   5.344   2.780 -0.3137  0.6151  0.3632
 7837SOL    HW230511   4.371   5.420   2.835 -0.5782 -0.4312  2.4995
 7838SOL     OW30512   0.907   2.615   1.143 -0.3832  0.1344  0.0050
 7838SOL    HW130513   0.863   2.651   1.061 -0.9338 -0.1892  0.1580
 7838SOL    HW230514   0.850   2.543   1.183 -0.4598  0.7621  1.0603
 7839SOL     OW30515   3.065   2.700   6.633 -0.0147 -0.1817  0.2190
 7839SOL    HW130516   2.968   2.683   6.651  0.0064  0.5690  1.0575
 7839SOL    HW230517   3.121   2.647   6.697  0.1277 -0.2927  0.0056
 7840SOL     OW30518   5.719   4.453   6.101 -0.3587 -0.4207 -0.2793
 7840SOL    HW130519   5.785   4.482   6.032  2.1261 -1.2725  1.6589
 7840SOL    HW230520   5.750   4.368   6.143 -1.4661  0.4194  2.3416
 7841SOL     OW30521   4.478   6.415   5.118  0.2091  0.4690 -0.2339
 7841SOL    HW130522   4.435   6.496   5.076 -2.8061 -1.0114 -0.1156
 7841SOL    HW230523   4.446   6.333   5.072  3.2706 -0.7072 -0.3567
 7842SOL     OW30524   1.556   3.350   5.707  0.5262 -0.1718 -0.3606
 7842SOL    HW130525   1.531   3.369   5.612 -1.4185 -1.0113 -0.0430
 7842SOL    HW230526   1.636   3.404   5.732 -0.9995  2.6673 -1.4240
 7843SOL     OW30527   6.915   6.924   0.683 -0.0368 -0.5325 -0.1711
 7843SOL    HW130528   6.936   7.013   0.723 -1.7299 -0.5052  0.7147
 7843SOL    HW230529   6.909   6.855   0.755  1.0795 -1.3359 -0.8326
 7844SOL     OW30530   3.022   4.110   4.029  0.2127  0.0970  0.0797
 7844SOL    HW130531   3.011   4.082   4.124  2.7790 -0.5398  0.2106
 7844SOL    HW230532   3.006   4.208   4.021 -0.5325  0.0598  1.0668
 7845SOL     OW30533   5.529   0.727   4.013  0.3006  0.5750 -0.3371
 7845SOL    HW130534   5.579   0.677   4.084  0.1789 -1.0231 -1.3463
 7845SOL    HW230535   5.588   0.799   3.975  1.4612 -0.5742 -0.7513
 7846SOL     OW30536   2.587   6.142   0.587 -0.5674 -0.0999  0.7512
 7846SOL    HW130537   2.573   6.224   0.532  0.6966 -0.8604 -0.7414
 7846SOL    HW230538   2.500   6.096   0.602 -0.9301  0.1251 -0.6122
 7847SOL     OW30539   3.823   4.814   3.674 -0.8483  0.1188  0.4431
 7847SOL    HW130540   3.781   4.878   3.739  0.1918 -1.6030  2.8954
 7847SOL    HW230541   3.897   4.765   3.719 -0.1883 -1.2538 -2.0476
 7848SOL     OW30542   1.304   0.760   4.357 -0.7928 -0.3390  0.4040
 7848SOL    HW130543   1.315   0.817   4.439 -0.2479 -0.3193  0.3240
 7848SOL    HW230544   1.294   0.664   4.384 -1.9233 -0.1847  0.5485
 7849SOL     OW30545   1.752   3.024   3.029 -0.5105  0.6875 -0.4528
 7849SOL    HW130546   1.800   2.939   3.053  0.1886  1.5244  1.2152
 7849SOL    HW230547   1.739   3.028   2.930 -0.2872 -1.2184 -0.5881
 7850SOL     OW30548   6.188   7.223   2.254  0.0456  0.7329  0.0360
 7850SOL    HW130549   6.127   7.234   2.176 -1.3333 -0.5003  0.9172
 7850SOL    HW230550   6.263   7.162   2.229 -1.2091 -0.8542  0.1321
 7851SOL     OW30551   3.238   3.773   5.476  0.2283 -0.5851  0.6816
 7851SOL    HW130552   3.139   3.763   5.482  0.2134 -0.2391  1.0138
 7851SOL    HW230553   3.282   3.696   5.523  0.1220 -1.4148 -0.5680
 7852SOL     OW30554   5.245   6.736   2.229  0.5941 -0.1393  0.6747
 7852SOL    HW130555   5.276   6.654   2.181  0.8802 -0.1173  0.8234
 7852SOL    HW230556   5.300   6.814   2.200  0.9131 -0.1653  1.2000
 7853SOL     OW30557   2.455   0.395   1.480 -0.0079 -0.4281 -0.3610
 7853SOL    HW130558   2.386   0.424   1.547  0.3656 -1.9618  0.7199
 7853SOL    HW230559   2.534   0.457   1.485  0.4470 -1.1145  1.3490
 7854SOL     OW30560   2.181   7.349   3.473 -0.3934  1.0216 -0.5370
 7854SOL    HW130561   2.231   7.271   3.508 -2.2209  0.0777  0.0569
 7854SOL    HW230562   2.245   7.416   3.434  1.2494 -0.3116 -0.1700
 7855SOL     OW30563   2.025   4.484   1.220  0.5778  0.7249 -0.0871
 7855SOL    HW130564   1.960   4.550   1.257 -1.1431 -0.6724 -0.5320
 7855SOL    HW230565   1.975   4.403   1.187  2.6065 -0.6613  0.1631
 7856SOL     OW30566   4.435   2.083   3.486 -0.0462 -0.3570 -0.1827
 7856SOL    HW130567   4.465   2.142   3.560  2.0509  0.5593 -1.7297
 7856SOL    HW230568   4.378   2.135   3.422 -1.4236 -1.0168  0.4766
 7857SOL     OW30569   5.160   5.640   4.693 -0.1966  0.0416  0.3695
 7857SOL    HW130570   5.162   5.739   4.675 -0.1931 -0.3704 -2.1016
 7857SOL    HW230571   5.129   5.592   4.611 -1.6403 -1.9255  2.0041
 7858SOL     OW30572   1.654   6.922   6.507 -0.2065 -0.3488  0.7405
 7858SOL    HW130573   1.664   7.021   6.500 -0.9962 -0.3677 -0.7156
 7858SOL    HW230574   1.663   6.895   6.603  0.6023  1.0549  1.0777
 7859SOL     OW30575   6.971   0.419   6.016  0.3920 -0.4587 -0.3658
 7859SOL    HW130576   6.889   0.439   6.070  0.2126  0.5811 -1.0085
 7859SOL    HW230577   6.964   0.327   5.977  0.4045 -1.1198  1.1566
 7860SOL     OW30578   6.618   3.212   4.194 -0.2123 -0.6134 -0.4709
 7860SOL    HW130579   6.577   3.174   4.277  1.2218  0.0360  0.5630
 7860SOL    HW230580   6.661   3.300   4.215  0.9875 -0.8867 -1.6841
 7861SOL     OW30581   3.601   1.722   2.781  0.3306  0.5680  0.1647
 7861SOL    HW130582   3.584   1.820   2.770 -0.4409  0.4645  0.4290
 7861SOL    HW230583   3.537   1.671   2.723  1.4558  0.2504 -0.8126
 7862SOL     OW30584   1.998   3.451   2.466  0.1103  0.2235 -0.8522
 7862SOL    HW130585   2.021   3.529   2.407  0.5111 -0.3330 -1.4481
 7862SOL    HW230586   1.918   3.404   2.429  0.8025 -0.5607 -1.3811
 7863SOL     OW30587   1.872   7.332   0.345 -0.0875  0.1594  0.0653
 7863SOL    HW130588   1.814   7.382   0.409  0.3824  0.6852  0.0772
 7863SOL    HW230589   1.874   7.380   0.257 -0.9180 -0.6796 -0.4264
 7864SOL     OW30590   3.711   3.620   4.376  0.0363  0.2689  0.3181
 7864SOL    HW130591   3.710   3.643   4.278  3.4649 -0.3039  0.1000
 7864SOL    HW230592   3.720   3.704   4.430 -0.5779  0.4769  0.1050
 7865SOL     OW30593   3.679   5.227   0.699  0.3199  0.0352 -0.0219
 7865SOL    HW130594   3.684   5.325   0.683  0.7582 -0.0914 -0.6740
 7865SOL    HW230595   3.746   5.180   0.641  1.1067 -0.5262  1.3149
 7866SOL     OW30596   3.830   3.747   0.217 -0.8914  0.3727  0.1799
 7866SOL    HW130597   3.794   3.656   0.196 -0.2804 -0.2532  1.7457
 7866SOL    HW230598   3.923   3.738   0.254 -0.8275  1.6298  0.3174
 7867SOL     OW30599   4.642   0.162   3.875 -0.2382  0.0460 -0.1868
 7867SOL    HW130600   4.669   0.119   3.789  0.0034 -0.7317  0.2641
 7867SOL    HW230601   4.714   0.225   3.905 -0.3953  0.4413 -0.6302
 7868SOL     OW30602   1.160   3.772   7.137 -0.3459  0.3603 -0.4962
 7868SOL    HW130603   1.217   3.801   7.214 -0.4392  1.7356 -0.9303
 7868SOL    HW230604   1.105   3.692   7.164 -0.5840  0.9959  0.9535
 7869SOL     OW30605   2.771   1.466   2.258  0.4290 -0.7151  0.7355
 7869SOL    HW130606   2.752   1.507   2.169  0.6668 -2.0041  0.0911
 7869SOL    HW230607   2.688   1.425   2.295  0.7949 -1.9503  0.1920
 7870SOL     OW30608   2.722   2.235   0.286 -0.3125  0.0429 -0.1886
 7870SOL    HW130609   2.797   2.249   0.221 -0.2652 -0.5728 -0.2743
 7870SOL    HW230610   2.639   2.213   0.235 -0.7079  1.3439 -0.1264
 7871SOL     OW30611   5.704   4.461   3.065 -0.4745  0.3583  0.2927
 7871SOL    HW130612   5.678   4.417   2.979 -0.1760 -1.2773  1.0243
 7871SOL    HW230613   5.633   4.445   3.134  0.9577 -1.4586  1.3896
 7872SOL     OW30614   3.395   2.980   1.135  0.2815 -1.0075  0.0613
 7872SOL    HW130615   3.397   3.012   1.230  1.0609  1.4157 -0.7363
 7872SOL    HW230616   3.306   3.000   1.095 -0.1002 -2.1669  0.2943
 7873SOL     OW30617   6.673   0.254   6.113 -0.3021  0.5096 -0.4625
 7873SOL    HW130618   6.582   0.234   6.147 -0.0406  2.8749  1.7305
 7873SOL    HW230619   6.667   0.313   6.032 -0.7093  1.0197 -0.0598
 7874SOL     OW30620   0.752   3.122   4.345  0.4195 -0.0946  0.1208
 7874SOL    HW130621   0.724   3.185   4.273  1.4022  3.0280  2.3545
 7874SOL    HW230622   0.671   3.080   4.386 -0.1578 -1.7196 -2.5518
 7875SOL     OW30623   0.337   3.960   5.367  0.1451 -0.1413  0.2871
 7875SOL    HW130624   0.396   4.009   5.431 -0.1897  0.0656  0.4379
 7875SOL    HW230625   0.391   3.931   5.288 -0.0237  1.9342 -0.6133
 7876SOL     OW30626   2.967   1.854   3.801 -0.2518  0.1809 -0.4650
 7876SOL    HW130627   3.062   1.824   3.813 -1.0320 -2.1627  0.0545
 7876SOL    HW230628   2.962   1.915   3.721  1.6724  0.2961 -0.5291
 7877SOL     OW30629   1.249   3.488   2.659  0.2489  0.3149  0.1252
 7877SOL    HW130630   1.161   3.530   2.684  0.3465  0.5854  0.0166
 7877SOL    HW230631   1.301   3.552   2.602  1.0953  0.6834  1.3002
 7878SOL     OW30632   5.737   0.062   3.827 -0.0470 -0.4000 -0.1999
 7878SOL    HW130633   5.705   0.142   3.879  1.8708  0.2483  0.0327
 7878SOL    HW230634   5.765   0.091   3.736 -1.1724 -1.1554 -0.8008
 7879SOL     OW30635   1.010   6.382   0.553 -0.4013  0.1468  0.6290
 7879SOL    HW130636   1.019   6.345   0.461  0.3929  1.9253 -0.0142
 7879SOL    HW230637   0.916   6.413   0.568 -0.1380  1.3057 -0.1304
 7880SOL     OW30638   1.439   3.058   1.479 -0.2647 -0.0093 -0.3269
 7880SOL    HW130639   1.362   3.060   1.543 -0.1990  2.6878 -0.2718
 7880SOL    HW230640   1.405   3.069   1.386  0.0044  0.3246 -0.3833
 7881SOL     OW30641   5.072   1.816   4.880  0.6640  0.3085  0.3533
 7881SOL    HW130642   5.109   1.860   4.962 -0.9716 -0.5748  1.6013
 7881SOL    HW230643   5.137   1.748   4.847  1.0853  0.2448  1.2863
 7882SOL     OW30644   5.681   1.955   2.280 -0.6511 -0.2741  0.4195
 7882SOL    HW130645   5.730   1.873   2.306  0.8760  0.5568  0.2100
 7882SOL    HW230646   5.666   1.955   2.181  0.9015  0.5166  0.1701
 7883SOL     OW30647   0.481   6.225   6.025 -0.5545  0.2131 -0.5634
 7883SOL    HW130648   0.434   6.262   5.944  0.5955  0.8853 -0.9324
 7883SOL    HW230649   0.576   6.255   6.025 -0.3888 -0.2771  0.7375
 7884SOL     OW30650   1.958   4.750   3.925 -0.3695  0.1560  0.6883
 7884SOL    HW130651   1.980   4.743   3.828  0.6287  0.4269  0.8872
 7884SOL    HW230652   1.892   4.824   3.939 -1.0213 -0.3165  0.1428
 7885SOL     OW30653   5.589   3.711   2.989 -0.1376 -0.2712  0.0731
 7885SOL    HW130654   5.571   3.748   3.080  0.6246 -2.1970  1.0253
 7885SOL    HW230655   5.687   3.698   2.977 -0.4045 -2.0608 -0.2165
 7886SOL     OW30656   3.596   7.081   3.496  0.1414  0.3966 -0.2046
 7886SOL    HW130657   3.565   7.114   3.407  0.5692 -0.0457 -0.5250
 7886SOL    HW230658   3.663   7.007   3.482 -2.5131 -2.2541  0.4637
 7887SOL     OW30659   4.504   4.952   5.603 -0.4638 -0.4515 -0.4611
 7887SOL    HW130660   4.593   4.908   5.591 -0.2724 -0.4126  0.7572
 7887SOL    HW230661   4.468   4.932   5.694 -1.2659  0.3300 -0.5923
 7888SOL     OW30662   1.019   5.543   7.111 -0.4123  0.0672  0.3189
 7888SOL    HW130663   1.023   5.478   7.035 -0.1912 -0.0000  0.3870
 7888SOL    HW230664   1.009   5.492   7.197  1.8018  0.0233  0.5645
 7889SOL     OW30665   0.969   0.309   1.673  0.0978 -0.1269 -0.2556
 7889SOL    HW130666   0.930   0.374   1.739  0.2962  0.9315 -1.1782
 7889SOL    HW230667   0.942   0.335   1.580  2.1923  0.0531 -0.8344
 7890SOL     OW30668   0.423   3.391   2.110  0.4245  0.5254  0.7341
 7890SOL    HW130669   0.394   3.472   2.161 -1.2421 -0.2586  1.0556
 7890SOL    HW230670   0.423   3.412   2.012 -3.5001 -0.0701  0.5160
 7891SOL     OW30671   3.112   3.350   1.936  0.4383  0.1411  0.8559
 7891SOL    HW130672   3.148   3.266   1.975  0.4624  0.3182  1.2132
 7891SOL    HW230673   3.143   3.428   1.990 -0.4982  0.2947  1.1704
 7892SOL     OW30674   4.467   4.350   2.717 -0.2545 -0.2419  0.3767
 7892SOL    HW130675   4.389   4.346   2.655  0.6019 -2.8359 -0.6264
 7892SOL    HW230676   4.538   4.409   2.679 -1.2165  1.1643  0.7232
 7893SOL     OW30677   6.419   0.721   3.151 -0.1312  0.6438  0.0458
 7893SOL    HW130678   6.440   0.785   3.226 -0.1274  0.3139  0.3299
 7893SOL    HW230679   6.493   0.723   3.084 -0.8426  2.0491 -0.7096
 7894SOL     OW30680   6.441   1.017   3.274 -0.1494 -0.6640  0.4673
 7894SOL    HW130681   6.411   1.029   3.180  0.6531  0.3437  0.3315
 7894SOL    HW230682   6.539   1.039   3.281 -0.5581  0.8339  1.8275
 7895SOL     OW30683   5.919   4.285   0.541  0.4612  0.2071  0.2324
 7895SOL    HW130684   6.009   4.273   0.582  0.4079 -1.1365 -0.0259
 7895SOL    HW230685   5.917   4.240   0.452  0.0012  1.5436 -0.4530
 7896SOL     OW30686   4.849   1.102   5.165  0.3041  0.5910 -0.4947
 7896SOL    HW130687   4.772   1.123   5.225  0.1711 -2.1443  0.3643
 7896SOL    HW230688   4.827   1.022   5.109  2.5581 -0.3260 -0.1305
 7897SOL     OW30689   6.953   0.556   1.880  0.5738 -0.2721  0.7300
 7897SOL    HW130690   6.882   0.621   1.852  0.0924 -1.1957 -0.1805
 7897SOL    HW230691   7.040   0.605   1.892  0.3902  0.4080 -0.6999
 7898SOL     OW30692   0.160   4.066   5.626 -0.1424  0.5210  0.0709
 7898SOL    HW130693   0.096   4.077   5.702  0.4301  0.7268  0.5372
 7898SOL    HW230694   0.153   3.974   5.589 -0.6591  0.5236  0.1576
 7899SOL     OW30695   2.375   1.755   0.514 -0.3923 -0.5342 -0.2073
 7899SOL    HW130696   2.444   1.686   0.534 -0.7220 -0.5036  1.0625
 7899SOL    HW230697   2.395   1.797   0.425  2.0086  0.4176  0.7306
 7900SOL     OW30698   2.821   1.449   6.078 -0.3240 -0.5288  0.1501
 7900SOL    HW130699   2.732   1.450   6.032  0.3114 -2.1405 -1.1590
 7900SOL    HW230700   2.844   1.356   6.105 -0.0344  0.1982  2.5205
 7901SOL     OW30701   7.067   2.221   4.573  0.0194  0.5983 -0.0259
 7901SOL    HW130702   7.102   2.132   4.544  0.2487  0.3924  0.8839
 7901SOL    HW230703   7.111   2.248   4.658 -1.6147  0.5893  0.8436
 7902SOL     OW30704   6.178   2.650   7.329 -0.0592  0.0668  0.3259
 7902SOL    HW130705   6.216   2.702   7.405 -0.3861 -0.8907  1.1724
 7902SOL    HW230706   6.171   2.708   7.248  1.4939  0.7454  0.6603
 7903SOL     OW30707   3.892   0.500   3.697 -0.1511 -0.7500 -0.0342
 7903SOL    HW130708   3.866   0.516   3.792  0.6291 -0.0922  0.0720
 7903SOL    HW230709   3.848   0.569   3.639  0.8402 -0.0285  0.0697
 7904SOL     OW30710   3.268   2.870   4.127  0.3651  0.9990 -0.3292
 7904SOL    HW130711   3.201   2.801   4.156  0.0777  1.9501  1.4117
 7904SOL    HW230712   3.319   2.837   4.049  0.1629 -1.1522  0.4123
 7905SOL     OW30713   4.345   2.975   7.212  0.3004 -0.4265 -0.4216
 7905SOL    HW130714   4.296   2.891   7.231 -0.2490  0.3129  1.6470
 7905SOL    HW230715   4.317   3.012   7.124  0.3831 -2.2812 -1.2317
 7906SOL     OW30716   2.579   6.893   6.157 -0.9174 -0.0073  0.6813
 7906SOL    HW130717   2.510   6.842   6.106 -0.2690 -1.3593  1.1184
 7906SOL    HW230718   2.605   6.975   6.107 -0.6966 -1.0262 -0.8860
 7907SOL     OW30719   0.176   0.845   1.711  0.5505 -0.2038 -0.0013
 7907SOL    HW130720   0.084   0.873   1.739  0.9416  0.4374  0.6704
 7907SOL    HW230721   0.234   0.837   1.793  1.6577  1.4638 -0.5974
 7908SOL     OW30722   2.350   5.715   5.623 -0.3367 -0.8641 -0.4773
 7908SOL    HW130723   2.388   5.762   5.543 -1.8240  1.9266  0.4076
 7908SOL    HW230724   2.271   5.660   5.595 -2.3256  1.9807 -0.6070
 7909SOL     OW30725   4.114   5.068   6.057  0.3764  0.1914 -0.1431
 7909SOL    HW130726   4.192   5.044   6.115  1.5837  0.8779 -1.4564
 7909SOL    HW230727   4.057   4.988   6.043  1.8060 -0.7695 -0.6042
 7910SOL     OW30728   5.383   6.658   3.784 -0.3383  0.7203  0.1917
 7910SOL    HW130729   5.480   6.638   3.775 -1.1189 -2.7221 -1.5300
 7910SOL    HW230730   5.340   6.661   3.694 -1.9251  1.6890  0.9490
 7911SOL     OW30731   5.802   3.732   2.717 -0.0970 -0.3293 -0.3648
 7911SOL    HW130732   5.835   3.645   2.754 -0.1202 -0.7283 -1.2877
 7911SOL    HW230733   5.863   3.806   2.746  0.4420 -0.7777 -0.3560
 7912SOL     OW30734   4.779   3.995   4.148  0.5490 -0.1268  0.0756
 7912SOL    HW130735   4.749   3.926   4.082  2.0915  1.0270 -1.8798
 7912SOL    HW230736   4.700   4.049   4.177  0.0496  0.1609 -1.7734
 7913SOL     OW30737   0.502   3.509   5.283  0.2983  0.1582 -0.0692
 7913SOL    HW130738   0.424   3.453   5.253  0.9307 -1.8921  1.9356
 7913SOL    HW230739   0.492   3.530   5.380  1.5468  1.0695 -0.1321
 7914SOL     OW30740   6.321   4.972   0.267  0.6549  0.4500 -0.0628
 7914SOL    HW130741   6.399   4.988   0.205  1.0647  0.4774  0.4576
 7914SOL    HW230742   6.270   4.892   0.236 -0.3213  1.6426 -1.6136
 7915SOL     OW30743   3.904   2.596   6.035 -0.4632 -0.4170 -0.0853
 7915SOL    HW130744   3.874   2.690   6.018  2.8841  0.5583 -0.9133
 7915SOL    HW230745   3.981   2.597   6.099 -0.3376 -2.6056 -0.1901
 7916SOL     OW30746   1.919   2.348   6.883  0.0045  0.2921 -0.0563
 7916SOL    HW130747   1.876   2.264   6.913  0.6889 -0.1061 -0.1731
 7916SOL    HW230748   1.991   2.327   6.816  1.1235  0.8262  0.9443
 7917SOL     OW30749   5.004   1.367   0.228 -0.3090 -0.1895 -0.0865
 7917SOL    HW130750   4.971   1.430   0.158 -1.7983  0.3000  1.0357
 7917SOL    HW230751   4.930   1.305   0.255  0.4051 -0.7225  0.6815
 7918SOL     OW30752   0.932   3.824   4.975  0.0452 -0.1643  0.0962
 7918SOL    HW130753   1.003   3.808   4.906  0.8267 -0.1543  0.8946
 7918SOL    HW230754   0.849   3.774   4.949 -0.3423  1.4405 -1.8945
 7919SOL     OW30755   2.562   5.033   0.612 -0.4900 -0.5276  0.3959
 7919SOL    HW130756   2.555   5.035   0.712 -0.6250 -2.0987  0.4173
 7919SOL    HW230757   2.522   4.949   0.577 -1.7061  0.6371 -1.0983
 7920SOL     OW30758   1.780   0.515   5.676  0.0358 -0.3906  0.6553
 7920SOL    HW130759   1.877   0.531   5.662  0.1535 -0.0899  1.7703
 7920SOL    HW230760   1.764   0.418   5.694 -0.1436 -0.8225 -1.6684
 7921SOL     OW30761   2.202   6.302   1.924 -0.1661 -0.2839  0.6974
 7921SOL    HW130762   2.160   6.211   1.921  2.3141 -1.4137 -2.0738
 7921SOL    HW230763   2.163   6.359   1.852  1.6105 -0.7323 -0.6607
 7922SOL     OW30764   6.108   1.911   1.538 -0.0919 -0.0867 -0.0879
 7922SOL    HW130765   6.126   2.006   1.512  0.0908  0.2163  1.1500
 7922SOL    HW230766   6.156   1.890   1.623 -0.7914 -1.0490  0.0746
 7923SOL     OW30767   2.747   3.513   1.851 -0.0387  0.2743  0.3972
 7923SOL    HW130768   2.674   3.496   1.918 -1.6107  0.5249 -1.2170
 7923SOL    HW230769   2.766   3.429   1.800 -0.7852  0.7660 -0.7138
 7924SOL     OW30770   2.209   6.370   1.251 -0.2773 -0.3172 -0.2164
 7924SOL    HW130771   2.196   6.460   1.292 -0.9909 -0.2502 -0.5796
 7924SOL    HW230772   2.301   6.336   1.272  0.3411  0.9164 -0.8981
 7925SOL     OW30773   0.683   4.603   4.419 -0.5120 -0.0448  0.1001
 7925SOL    HW130774   0.620   4.577   4.492  0.0894  1.5725  1.2125
 7925SOL    HW230775   0.705   4.700   4.427  2.3347 -0.6439 -0.1253
 7926SOL     OW30776   5.099   2.521   4.076 -0.1566  0.5557 -0.2798
 7926SOL    HW130777   5.144   2.592   4.022  0.2212  0.5647  0.0455
 7926SOL    HW230778   5.024   2.481   4.023  0.9142 -0.2053 -1.2514
 7927SOL     OW30779   0.914   4.444   5.192  0.1260 -0.0871 -0.2550
 7927SOL    HW130780   0.920   4.510   5.267  1.8127 -0.9669  0.3984
 7927SOL    HW230781   0.973   4.473   5.117  0.1015 -0.3475 -0.3745
 7928SOL     OW30782   6.313   0.607   6.495 -0.4099 -0.1403 -0.4107
 7928SOL    HW130783   6.338   0.510   6.493  1.3261  0.2674  0.2820
 7928SOL    HW230784   6.275   0.629   6.585  0.3367  0.0889 -0.1508
 7929SOL     OW30785   5.736   0.349   2.768  0.2279  0.0091  0.5192
 7929SOL    HW130786   5.664   0.414   2.745 -0.6677 -1.3698 -0.7335
 7929SOL    HW230787   5.822   0.397   2.780 -0.5069  1.4639  0.1241
 7930SOL     OW30788   1.890   5.253   5.881  0.0945  0.3378  0.1985
 7930SOL    HW130789   1.892   5.183   5.952 -2.6011  1.0422  1.0251
 7930SOL    HW230790   1.913   5.342   5.920 -0.4839  0.5749  0.0115
 7931SOL     OW30791   3.026   1.426   1.546 -0.3883  0.5395  0.2493
 7931SOL    HW130792   3.045   1.471   1.634 -0.2558 -0.1871  0.6003
 7931SOL    HW230793   3.078   1.471   1.474 -1.6641  2.1083  0.2892
 7932SOL     OW30794   2.627   7.150   1.153 -0.6621  0.5045  0.3027
 7932SOL    HW130795   2.711   7.117   1.196  0.0318  0.7776 -0.8196
 7932SOL    HW230796   2.569   7.073   1.129 -0.3511  0.2674  0.3098
 7933SOL     OW30797   1.428   2.599   5.846 -0.1609 -0.6583  0.3238
 7933SOL    HW130798   1.498   2.605   5.775 -1.3145 -1.1576 -0.8792
 7933SOL    HW230799   1.338   2.609   5.804 -0.8780 -1.3794  1.6804
 7934SOL     OW30800   3.652   1.911   5.784 -0.1777 -0.0777 -0.1917
 7934SOL    HW130801   3.598   1.877   5.860 -0.8132  1.3168 -0.0108
 7934SOL    HW230802   3.621   2.002   5.758  0.8145 -0.0445 -1.3464
 7935SOL     OW30803   5.347   5.170   7.168 -0.6474  0.5898  0.1129
 7935SOL    HW130804   5.310   5.211   7.084  1.6017  0.4347 -0.9946
 7935SOL    HW230805   5.386   5.081   7.147 -1.0476  0.0572  1.5628
 7936SOL     OW30806   0.158   3.724   3.697  0.2084 -0.4825  0.1641
 7936SOL    HW130807   0.189   3.724   3.792  0.9080 -0.0901 -0.0625
 7936SOL    HW230808   0.233   3.697   3.637  0.4513  1.6202 -0.4939
 7937SOL     OW30809   7.077   3.138   1.550  0.8784  0.2177 -0.0140
 7937SOL    HW130810   6.994   3.172   1.595  0.7075 -1.2295  0.7828
 7937SOL    HW230811   7.064   3.141   1.451  0.0780  0.5164  0.0933
 7938SOL     OW30812   5.708   0.885   0.947 -0.9654  0.3397  0.3968
 7938SOL    HW130813   5.802   0.858   0.925 -0.9331  2.4855 -2.4042
 7938SOL    HW230814   5.701   0.904   1.045  1.3584 -0.5042  0.7595
 7939SOL     OW30815   2.933   2.118   6.892  0.3448 -0.4869 -0.2808
 7939SOL    HW130816   2.869   2.059   6.942  0.7151 -0.0259  0.7529
 7939SOL    HW230817   3.004   2.150   6.954  0.8275  0.0843 -1.1193
 7940SOL     OW30818   6.754   2.548   6.921 -0.9468  0.5582 -0.1859
 7940SOL    HW130819   6.743   2.607   7.001  1.2143  0.8675 -0.0779
 7940SOL    HW230820   6.719   2.595   6.840 -1.0107  1.2044  0.2128
 7941SOL     OW30821   2.801   3.220   3.178 -0.2690 -0.2585  0.7302
 7941SOL    HW130822   2.863   3.179   3.245 -0.2634 -1.4501  0.0095
 7941SOL    HW230823   2.849   3.231   3.091 -0.4388  0.7949  0.7625
 7942SOL     OW30824   2.912   2.455   6.512  0.2219  0.0538  0.1509
 7942SOL    HW130825   2.857   2.402   6.447 -0.1651  1.2979 -0.5526
 7942SOL    HW230826   3.008   2.450   6.485  0.3524 -1.3886  0.8633
 7943SOL     OW30827   3.255   2.591   4.812 -0.6038 -0.7464 -0.0951
 7943SOL    HW130828   3.309   2.517   4.853  0.1440 -0.0116  0.2724
 7943SOL    HW230829   3.301   2.624   4.730 -0.8433 -0.5724 -0.1607
 7944SOL     OW30830   4.056   4.994   2.322  0.4153 -0.1282  0.0912
 7944SOL    HW130831   4.114   4.914   2.337  1.4622  0.8797  1.5219
 7944SOL    HW230832   4.103   5.059   2.262  0.1302  0.0180  0.0238
 7945SOL     OW30833   3.104   5.270   1.369 -0.0215  0.2985  0.2929
 7945SOL    HW130834   3.198   5.289   1.339 -0.0025  1.0978  0.8094
 7945SOL    HW230835   3.075   5.181   1.335 -0.5771  1.8170 -3.3927
 7946SOL     OW30836   2.668   4.738   5.415 -0.1985 -0.2489 -0.4095
 7946SOL    HW130837   2.726   4.814   5.385  0.3530 -0.5975 -0.2463
 7946SOL    HW230838   2.675   4.727   5.514 -0.0034 -0.7231 -0.4715
 7947SOL     OW30839   5.449   6.769   6.575 -0.2867 -0.2378 -0.5716
 7947SOL    HW130840   5.368   6.716   6.599 -1.1499  1.7337  1.0646
 7947SOL    HW230841   5.504   6.719   6.508 -2.3726 -2.0012 -1.0017
 7948SOL     OW30842   1.783   4.454   3.274  0.0356  0.0361 -0.3223
 7948SOL    HW130843   1.882   4.453   3.266 -0.0027 -0.4936 -0.7653
 7948SOL    HW230844   1.744   4.380   3.219 -0.5742 -0.0529  0.2200
 7949SOL     OW30845   0.724   5.444   6.467 -0.1065  0.1585  0.1152
 7949SOL    HW130846   0.760   5.353   6.448 -0.8868  0.1623 -1.5062
 7949SOL    HW230847   0.640   5.459   6.414  0.0833  1.8707  0.2488
 7950SOL     OW30848   3.436   7.142   1.782 -0.4506 -0.0530  0.1377
 7950SOL    HW130849   3.374   7.215   1.754  1.1321  0.1614 -2.9401
 7950SOL    HW230850   3.420   7.061   1.726 -0.3019 -1.1663  1.6696
 7951SOL     OW30851   3.774   7.206   1.520  0.4543 -0.2104 -0.2877
 7951SOL    HW130852   3.707   7.134   1.500  0.4489 -0.4869  0.6692
 7951SOL    HW230853   3.864   7.178   1.486  0.1552  0.0024 -1.2579
 7952SOL     OW30854   0.861   3.478   3.019 -0.2670 -0.0040 -0.6607
 7952SOL    HW130855   0.956   3.485   2.988  0.0016 -3.0242 -0.7536
 7952SOL    HW230856   0.838   3.556   3.077  2.4624  0.4772 -0.1753
 7953SOL     OW30857   2.937   6.928   0.529 -0.4214  0.1273  0.1589
 7953SOL    HW130858   3.022   6.959   0.571 -1.5903  2.1093  1.1079
 7953SOL    HW230859   2.907   6.843   0.573  0.3896  0.0975  0.6655
 7954SOL     OW30860   5.741   6.925   3.323 -0.2660 -0.3770  0.1362
 7954SOL    HW130861   5.718   6.830   3.301  2.0023 -0.8695 -0.2774
 7954SOL    HW230862   5.741   6.980   3.240  1.4589 -0.7210 -0.1204
 7955SOL     OW30863   6.397   1.761   0.603  0.6065 -0.1341  0.0329
 7955SOL    HW130864   6.397   1.859   0.586 -0.5925  0.1453  1.5343
 7955SOL    HW230865   6.490   1.725   0.593  1.0861  1.1969 -0.3039
 7956SOL     OW30866   4.874   3.070   1.912 -0.5418 -0.2111 -0.3363
 7956SOL    HW130867   4.870   3.129   1.832  0.0120  0.3497  0.0422
 7956SOL    HW230868   4.845   2.978   1.888  0.5679 -0.2901 -1.4150
 7957SOL     OW30869   6.723   1.865   6.203 -0.2355  0.2273 -0.0407
 7957SOL    HW130870   6.649   1.928   6.225 -0.9147 -0.6635  0.2501
 7957SOL    HW230871   6.742   1.807   6.283  0.2184 -0.0993 -0.3837
 7958SOL     OW30872   2.459   2.020   2.002 -0.1393  0.2677 -0.3629
 7958SOL    HW130873   2.496   1.951   2.065 -0.8605  1.1833  1.0831
 7958SOL    HW230874   2.376   2.059   2.040 -0.5166  0.9482 -1.8358
 7959SOL     OW30875   1.444   3.110   4.419  0.3731 -0.0556  0.5731
 7959SOL    HW130876   1.467   3.153   4.332 -1.2027 -1.2787 -0.4732
 7959SOL    HW230877   1.522   3.057   4.451 -0.4411 -3.1531 -2.3011
 7960SOL     OW30878   2.852   1.637   1.865  0.7433  0.2035 -0.0083
 7960SOL    HW130879   2.756   1.615   1.886  0.6763 -1.8794 -2.3149
 7960SOL    HW230880   2.906   1.553   1.868  2.2963  1.1944  0.0801
 7961SOL     OW30881   5.530   4.313   4.261 -0.9194  0.2602  0.2526
 7961SOL    HW130882   5.465   4.385   4.286 -1.2963  0.7987 -2.2120
 7961SOL    HW230883   5.495   4.261   4.184  0.1281 -1.5264  0.9347
 7962SOL     OW30884   2.771   1.253   0.608  0.1908  0.2044 -0.3132
 7962SOL    HW130885   2.834   1.235   0.684 -0.1549 -1.6592 -0.4299
 7962SOL    HW230886   2.818   1.304   0.536  1.0798  0.2796  0.3142
 7963SOL     OW30887   0.778   1.976   6.431  0.0765 -0.0131  0.1848
 7963SOL    HW130888   0.821   2.039   6.366 -1.5909  1.0999  0.1235
 7963SOL    HW230889   0.802   2.003   6.524 -0.3305  0.4980  0.1440
 7964SOL     OW30890   4.010   0.683   1.105  0.5121  0.1447 -0.2994
 7964SOL    HW130891   4.051   0.619   1.169 -3.0163 -1.6378  0.3098
 7964SOL    HW230892   4.017   0.646   1.012 -2.0145 -1.4795  0.1142
 7965SOL     OW30893   5.509   3.967   7.236 -0.5036 -0.0695  0.4364
 7965SOL    HW130894   5.442   4.023   7.189 -1.4198 -0.9840  0.6424
 7965SOL    HW230895   5.572   3.927   7.168 -2.0618 -1.7062 -0.0729
 7966SOL     OW30896   4.217   4.955   2.676  0.1078 -0.0506  0.2835
 7966SOL    HW130897   4.118   4.965   2.675  0.0046 -0.9118  1.2816
 7966SOL    HW230898   4.254   4.976   2.586 -0.8858  1.1969  0.1558
 7967SOL     OW30899   3.897   6.285   0.338  0.3848 -0.4524 -0.1503
 7967SOL    HW130900   3.920   6.196   0.377  0.2911  0.2669  1.5978
 7967SOL    HW230901   3.978   6.345   0.340 -0.2512  0.3898  1.2365
 7968SOL     OW30902   6.644   1.158   7.223  0.1501 -0.3438 -0.1572
 7968SOL    HW130903   6.604   1.197   7.140  0.2033  0.3139  0.1169
 7968SOL    HW230904   6.660   1.232   7.289  0.5835 -0.7918  0.2369
 7969SOL     OW30905   7.050   2.084   0.397  0.0977 -0.4051 -0.0014
 7969SOL    HW130906   7.115   2.049   0.330 -1.6393  0.5183 -2.2279
 7969SOL    HW230907   6.959   2.047   0.378 -0.3745 -0.4339  2.1065
 7970SOL     OW30908   5.273   5.966   2.790 -0.1159 -0.1951  0.0019
 7970SOL    HW130909   5.330   5.911   2.729 -0.4180  0.7968 -1.1847
 7970SOL    HW230910   5.235   5.907   2.862  1.4751 -1.0796  0.1416
 7971SOL     OW30911   7.241   3.757   4.744  0.4122  0.0985 -0.3941
 7971SOL    HW130912   7.201   3.819   4.812 -2.1586  0.9055 -2.5700
 7971SOL    HW230913   7.209   3.664   4.761 -0.2045  0.2927 -0.5146
 7972SOL     OW30914   6.323   5.694   4.522 -0.4290 -0.0699  0.3696
 7972SOL    HW130915   6.257   5.694   4.447  2.2950  3.7829 -2.1990
 7972SOL    HW230916   6.302   5.768   4.585 -0.5686 -1.0324  1.4729
 7973SOL     OW30917   5.148   3.359   5.758  0.2257  0.4497 -0.1922
 7973SOL    HW130918   5.080   3.422   5.721  0.6306  0.9121 -0.1602
 7973SOL    HW230919   5.115   3.321   5.844 -1.0787 -1.2638 -1.4143
 7974SOL     OW30920   6.066   6.611   5.632 -0.3821 -0.1778 -0.1817
 7974SOL    HW130921   6.140   6.553   5.599  1.3339  1.1958  1.0863
 7974SOL    HW230922   5.978   6.567   5.617  0.8692 -3.0742  0.7406
 7975SOL     OW30923   6.319   2.341   1.048 -0.1260  0.0857 -0.0660
 7975SOL    HW130924   6.231   2.359   1.004 -0.1303  1.1042  0.3509
 7975SOL    HW230925   6.391   2.391   0.999 -0.2695  2.0418  1.6710
 7976SOL     OW30926   5.626   5.579   6.357  0.1126  0.0674 -0.6412
 7976SOL    HW130927   5.623   5.600   6.455  2.9284  0.4016 -0.5603
 7976SOL    HW230928   5.673   5.492   6.343  1.0975  0.7591 -1.7606
 7977SOL     OW30929   2.726   6.436   5.645  0.0078 -0.3956  0.4204
 7977SOL    HW130930   2.637   6.398   5.674 -0.1672 -0.2755  0.0461
 7977SOL    HW230931   2.798   6.398   5.703 -0.4036  0.3331  1.4352
 7978SOL     OW30932   4.986   0.130   7.274  0.2111 -0.6531 -0.0166
 7978SOL    HW130933   4.914   0.177   7.326  0.5341 -0.7741  0.5382
 7978SOL    HW230934   4.983   0.032   7.294 -0.6117 -0.9162 -1.3492
 7979SOL     OW30935   3.839   6.338   7.207 -0.1373 -0.0790 -0.4883
 7979SOL    HW130936   3.877   6.375   7.292 -0.2389  1.4083 -1.0832
 7979SOL    HW230937   3.757   6.389   7.182  0.2936 -0.0422 -1.8656
 7980SOL     OW30938   4.141   4.180   2.045  0.1488 -0.5772 -0.1471
 7980SOL    HW130939   4.196   4.259   2.020 -0.1881  0.2939  1.7891
 7980SOL    HW230940   4.085   4.152   1.966 -0.0094  1.3392 -0.7507
 7981SOL     OW30941   6.550   2.916   0.190  0.6127  0.2030 -0.0159
 7981SOL    HW130942   6.585   2.933   0.098  1.9815 -0.5151  0.3659
 7981SOL    HW230943   6.600   2.840   0.231 -1.0442 -0.5085  0.7307
 7982SOL     OW30944   2.551   2.598   2.890 -0.5626  0.2901  0.1302
 7982SOL    HW130945   2.549   2.574   2.793  1.1896  1.0006 -0.0975
 7982SOL    HW230946   2.535   2.696   2.900  0.2744  0.4015  0.4635
 7983SOL     OW30947   0.964   5.397   6.891  0.5873  0.0015  0.5514
 7983SOL    HW130948   0.870   5.418   6.919  0.5791  0.2472  0.3411
 7983SOL    HW230949   0.967   5.304   6.854  0.0677  0.6133 -1.0838
 7984SOL     OW30950   1.525   1.480   7.065 -0.1937 -0.1497  0.3780
 7984SOL    HW130951   1.619   1.502   7.092  0.7938 -2.7030 -0.7955
 7984SOL    HW230952   1.526   1.436   6.975 -2.8287  2.5556 -1.0446
 7985SOL     OW30953   3.689   5.829   5.795 -0.5896 -0.5209  1.0748
 7985SOL    HW130954   3.751   5.752   5.774 -1.6415 -1.4507  1.3378
 7985SOL    HW230955   3.608   5.823   5.736 -0.9567  0.0460  1.5219
 7986SOL     OW30956   3.752   0.382   5.912 -0.7370 -0.0408  0.2182
 7986SOL    HW130957   3.803   0.377   5.826  0.8220  1.3122  1.0442
 7986SOL    HW230958   3.722   0.290   5.938  0.2001 -0.6892 -0.9216
 7987SOL     OW30959   0.861   4.840   5.787 -0.1881 -0.3292  0.1883
 7987SOL    HW130960   0.948   4.792   5.788  0.0148  0.0379  0.3288
 7987SOL    HW230961   0.786   4.774   5.790  0.0753 -0.6788 -0.7261
 7988SOL     OW30962   2.046   2.269   0.105 -0.1469  0.4324 -0.2573
 7988SOL    HW130963   1.971   2.215   0.144  0.3303 -0.2549 -0.2779
 7988SOL    HW230964   2.084   2.329   0.176  0.7971 -0.8994  0.3872
 7989SOL     OW30965   4.012   0.728   5.121 -0.6850 -0.1013  0.5634
 7989SOL    HW130966   3.915   0.722   5.098 -0.2572  1.0070 -1.6002
 7989SOL    HW230967   4.056   0.640   5.102 -0.6179  0.3870 -1.6773
 7990SOL     OW30968   3.640   5.326   3.727  0.0767 -0.2139  0.2815
 7990SOL    HW130969   3.667   5.286   3.814  1.8330  0.0873 -0.1139
 7990SOL    HW230970   3.685   5.278   3.652 -0.4964  0.2961 -0.4022
 7991SOL     OW30971   4.429   4.421   5.668 -0.1408  1.0429 -0.3505
 7991SOL    HW130972   4.491   4.440   5.744 -1.7933 -0.0816  1.3374
 7991SOL    HW230973   4.437   4.324   5.642 -1.6094  0.7272  0.3109
 7992SOL     OW30974   3.550   6.770   6.693 -0.5646  0.0681  0.2618
 7992SOL    HW130975   3.543   6.813   6.603  0.4922 -0.8528 -0.2846
 7992SOL    HW230976   3.557   6.840   6.763  1.3943  0.8064 -0.6291
 7993SOL     OW30977   3.791   4.225   6.432 -0.9039  0.2340  0.1979
 7993SOL    HW130978   3.817   4.187   6.521  1.1440 -1.2248 -1.0074
 7993SOL    HW230979   3.735   4.159   6.383  1.1683 -0.5533 -1.1586
 7994SOL     OW30980   4.331   2.735   3.172 -0.3567  0.0569  0.3186
 7994SOL    HW130981   4.376   2.778   3.093 -0.0916 -0.7197  0.0424
 7994SOL    HW230982   4.277   2.804   3.221 -0.6313  0.5170 -0.6179
 7995SOL     OW30983   6.363   1.545   7.279 -0.0633 -0.6212  0.0050
 7995SOL    HW130984   6.330   1.519   7.370 -1.9686  1.0145 -0.1777
 7995SOL    HW230985   6.329   1.480   7.211 -0.1965 -0.7656  0.2091
 7996SOL     OW30986   6.991   0.632   0.346 -0.1666  0.0019 -0.1616
 7996SOL    HW130987   7.001   0.613   0.443  0.2723  0.8648 -0.0311
 7996SOL    HW230988   6.935   0.714   0.333 -0.5281 -0.3166 -0.6479
 7997SOL     OW30989   4.229   1.098   5.943 -0.0105 -0.6307 -0.3272
 7997SOL    HW130990   4.219   1.003   5.973 -1.9909 -0.1529  0.6392
 7997SOL    HW230991   4.222   1.159   6.021  1.9167  0.3101 -0.8536
 7998SOL     OW30992   6.345   1.061   0.467  0.4920 -0.1643  0.5134
 7998SOL    HW130993   6.392   0.976   0.489 -0.5824 -0.8039  0.3611
 7998SOL    HW230994   6.413   1.132   0.446  1.3870 -0.9884  0.5799
 7999SOL     OW30995   2.848   1.658   1.352  0.1336  0.4437 -0.3156
 7999SOL    HW130996   2.859   1.579   1.291  0.7584 -0.2839  0.7073
 7999SOL    HW230997   2.838   1.741   1.298  1.5252 -0.0760 -1.4075
 8000SOL     OW30998   4.810   6.940   0.171 -0.9847 -0.3974  0.2690
 8000SOL    HW130999   4.772   6.997   0.098  1.0324  1.6137  0.7403
 8000SOL    HW231000   4.788   6.980   0.260 -0.7794 -1.1337  0.6512
 8001SOL     OW31001   1.556   2.189   4.477 -0.4864 -0.4078  0.4047
 8001SOL    HW131002   1.488   2.118   4.490  0.6919 -1.6089  0.1592
 8001SOL    HW231003   1.570   2.205   4.379 -2.0766  1.4967  0.4508
 8002SOL     OW31004   5.332   2.389   1.766  0.5551 -0.5492 -0.6824
 8002SOL    HW131005   5.267   2.459   1.796  1.9178  1.7861 -2.8867
 8002SOL    HW231006   5.333   2.314   1.832 -0.1413  2.0102  2.3974
 8003SOL     OW31007   4.564   4.668   5.281 -0.1917 -0.8234 -0.5075
 8003SOL    HW131008   4.571   4.569   5.292  1.3521 -0.5993  0.7665
 8003SOL    HW231009   4.629   4.698   5.212 -1.0923 -0.7503 -1.3396
 8004SOL     OW31010   0.001   6.810   6.286  0.5830  0.1742 -0.1063
 8004SOL    HW131011   0.060   6.877   6.242  1.8998 -1.0086 -0.1569
 8004SOL    HW231012   0.026   6.718   6.256 -0.6979 -0.4066  0.5575
 8005SOL     OW31013   6.265   3.252   2.050 -0.0631 -0.6722 -0.0455
 8005SOL    HW131014   6.218   3.171   2.087  0.6499 -0.7080  0.8135
 8005SOL    HW231015   6.363   3.242   2.064 -0.0214  0.6680  0.7166
 8006SOL     OW31016   2.971   5.810   2.219  0.0680  0.3721 -0.9733
 8006SOL    HW131017   2.945   5.760   2.302  0.8218  0.5126 -0.6517
 8006SOL    HW231018   2.998   5.903   2.244 -2.0631  1.2112 -1.6415
 8007SOL     OW31019   3.777   0.696   3.941  0.2622  0.9599 -0.5393
 8007SOL    HW131020   3.678   0.709   3.947  0.0902 -0.4115 -0.2881
 8007SOL    HW231021   3.799   0.600   3.956  1.6107  1.1965 -0.9418
 8008SOL     OW31022   2.993   4.140   5.360  0.5515  0.4090 -0.4461
 8008SOL    HW131023   3.061   4.214   5.365 -0.1072  0.8926  1.6378
 8008SOL    HW231024   3.011   4.073   5.432 -1.6073  0.9045  0.5837
 8009SOL     OW31025   5.047   1.925   6.173  0.5664  0.5293  0.3739
 8009SOL    HW131026   5.104   2.007   6.160  0.0277  1.2023  2.0577
 8009SOL    HW231027   4.958   1.940   6.132  1.1142  0.0246 -1.0221
 8010SOL     OW31028   4.058   4.586   5.025 -0.3910  0.1478 -0.4022
 8010SOL    HW131029   4.098   4.584   4.934  0.4740  0.9916 -0.0472
 8010SOL    HW231030   4.130   4.586   5.094 -0.9233  2.6033  0.2250
 8011SOL     OW31031   1.017   5.716   6.803  0.0577  0.3288 -0.0089
 8011SOL    HW131032   0.938   5.691   6.747  1.3366 -1.4145 -1.0885
 8011SOL    HW231033   1.034   5.645   6.871  1.4745  0.0450 -0.6373
 8012SOL     OW31034   1.672   6.045   6.530  0.6690 -0.2478 -0.4710
 8012SOL    HW131035   1.582   6.073   6.496  1.1015 -0.2226 -1.5923
 8012SOL    HW231036   1.728   6.127   6.545  1.6942 -0.4514 -3.0857
 8013SOL     OW31037   1.109   4.375   6.979 -0.4029  0.2786  0.1968
 8013SOL    HW131038   1.145   4.306   7.041  0.1409  0.1967 -0.2101
 8013SOL    HW231039   1.056   4.331   6.907  1.9021  0.0788 -1.4197
 8014SOL     OW31040   1.887   0.788   6.237  0.9238  0.3562  0.6578
 8014SOL    HW131041   1.809   0.727   6.251  1.2281 -0.0891  0.3818
 8014SOL    HW231042   1.969   0.747   6.277  0.8135  1.3044  1.9011
 8015SOL     OW31043   3.680   0.335   6.659  0.1326  0.3655 -0.1921
 8015SOL    HW131044   3.588   0.296   6.657  0.2868  0.0296 -1.3236
 8015SOL    HW231045   3.693   0.388   6.743 -0.3374 -1.3774  0.9838
 8016SOL     OW31046   1.500   4.265   7.245 -0.3911 -0.2946 -0.5151
 8016SOL    HW131047   1.484   4.349   7.194 -0.4306 -0.1724 -0.3007
 8016SOL    HW231048   1.598   4.255   7.262 -0.5279  0.4665  0.7575
 8017SOL     OW31049   0.063   2.784   0.745  0.2535 -0.0547 -0.1987
 8017SOL    HW131050   0.009   2.743   0.818  2.0921 -1.0691  0.5934
 8017SOL    HW231051   0.009   2.857   0.702 -1.5223 -0.6502  0.9560
 8018SOL     OW31052   6.019   5.141   1.733 -0.6224  0.1205  0.0203
 8018SOL    HW131053   6.075   5.204   1.680  0.1008 -0.5058  0.0391
 8018SOL    HW231054   5.929   5.182   1.748 -0.2742  1.0049 -0.2538
 8019SOL     OW31055   2.647   7.282   2.103 -0.3389  0.2249 -0.1650
 8019SOL    HW131056   2.653   7.309   2.007 -0.3051  1.8038  0.2683
 8019SOL    HW231057   2.559   7.313   2.140 -1.3290 -2.3438 -0.2712
 8020SOL     OW31058   7.333   0.859   0.945  0.3335  0.1473  0.5918
 8020SOL    HW131059   7.286   0.858   1.033 -2.0190  1.4961 -0.5987
 8020SOL    HW231060   7.361   0.952   0.924  0.4513 -0.0928 -0.3112
 8021SOL     OW31061   0.567   1.304   0.392 -0.3621 -0.0509  0.0389
 8021SOL    HW131062   0.640   1.329   0.456  0.1891 -2.0348  0.2117
 8021SOL    HW231063   0.605   1.249   0.318 -1.7798 -1.5835  0.4228
 8022SOL     OW31064   5.379   6.242   1.529 -0.2510 -0.0958 -0.2398
 8022SOL    HW131065   5.335   6.242   1.619 -0.2558  0.7236 -0.2465
 8022SOL    HW231066   5.308   6.234   1.458 -0.4469  1.8601 -0.2771
 8023SOL     OW31067   3.257   4.180   4.313 -0.4086 -0.0815  0.1691
 8023SOL    HW131068   3.250   4.272   4.350 -0.6001  0.6872 -1.7021
 8023SOL    HW231069   3.168   4.134   4.319 -0.5037  0.1382  0.4075
 8024SOL     OW31070   6.361   7.203   4.795  0.0868  0.0996 -0.2544
 8024SOL    HW131071   6.330   7.167   4.883 -1.5144 -1.0111 -1.2300
 8024SOL    HW231072   6.313   7.289   4.775 -0.8900 -0.5780 -0.8495
 8025SOL     OW31073   6.270   0.819   2.384 -0.1828  0.0461  0.4490
 8025SOL    HW131074   6.256   0.721   2.367  0.1806 -0.2648  1.8810
 8025SOL    HW231075   6.366   0.836   2.408 -0.3591  0.6797  0.7253
 8026SOL     OW31076   3.505   3.045   2.330 -0.1898  0.6822  0.7762
 8026SOL    HW131077   3.457   3.009   2.410  0.7761  0.9282  1.4732
 8026SOL    HW231078   3.478   3.139   2.314 -1.4969  0.1721 -0.0777
 8027SOL     OW31079   4.890   6.392   5.686 -0.1353 -0.0256 -0.2843
 8027SOL    HW131080   4.864   6.371   5.592 -0.4750  0.4907 -0.3098
 8027SOL    HW231081   4.989   6.384   5.696  0.1970  2.3377 -1.3290
 8028SOL     OW31082   2.963   2.444   3.050 -0.1567  0.2330  0.0746
 8028SOL    HW131083   2.991   2.537   3.023  0.4971  0.1532  0.4735
 8028SOL    HW231084   2.884   2.450   3.111  0.5375  0.5879  0.9516
 8029SOL     OW31085   5.789   2.694   1.377 -0.2593 -0.4593  0.3736
 8029SOL    HW131086   5.838   2.641   1.308  1.2307  0.0528  1.0150
 8029SOL    HW231087   5.811   2.657   1.468 -0.8063 -0.0166  0.6840
 8030SOL     OW31088   2.305   1.342   2.106 -0.8776  0.5154  0.6932
 8030SOL    HW131089   2.391   1.364   2.152 -0.6065 -1.4181  1.1458
 8030SOL    HW231090   2.243   1.421   2.111 -0.7899  0.4030  4.2124
 8031SOL     OW31091   7.157   6.303   7.143  0.2813 -0.5072 -0.4803
 8031SOL    HW131092   7.063   6.334   7.133  0.6063  0.9046  0.5851
 8031SOL    HW231093   7.166   6.250   7.228  0.4831 -0.4899 -0.4912
 8032SOL     OW31094   3.170   7.278   0.187 -0.2016  0.4512  0.4310
 8032SOL    HW131095   3.097   7.258   0.253  0.1142 -4.1681 -0.4940
 8032SOL    HW231096   3.251   7.309   0.237 -0.6142 -1.0333  2.0948
 8033SOL     OW31097   3.977   1.145   1.052  0.6450 -0.0139 -0.0013
 8033SOL    HW131098   3.885   1.156   1.014  0.1715  0.4997  1.2761
 8033SOL    HW231099   3.976   1.073   1.122  1.0737  0.4414  0.4748
 8034SOL     OW31100   7.037   2.516   6.968 -0.8996 -0.5835  0.0672
 8034SOL    HW131101   7.072   2.426   6.996 -1.6033 -0.1463  2.4551
 8034SOL    HW231102   6.938   2.510   6.955 -1.0035 -0.0604  0.6147
 8035SOL     OW31103   4.023   2.765   5.134  0.3404  0.2400 -0.1872
 8035SOL    HW131104   4.002   2.852   5.178  1.7357 -0.2249  1.4756
 8035SOL    HW231105   4.078   2.782   5.051  0.4639  0.9501  0.0395
 8036SOL     OW31106   5.026   7.174   3.068  0.1763  0.6253 -0.4102
 8036SOL    HW131107   5.103   7.204   3.124  0.3593  0.1314 -0.3954
 8036SOL    HW231108   5.029   7.221   2.980 -0.3959  1.7773  0.1761
 8037SOL     OW31109   5.880   1.934   6.603  0.2941  0.0592 -0.3921
 8037SOL    HW131110   5.849   1.839   6.595 -1.2262  0.5077 -0.0443
 8037SOL    HW231111   5.962   1.947   6.548  1.5290 -1.8858  0.9125
 8038SOL     OW31112   6.446   4.297   3.623 -0.1739 -0.6040  0.2912
 8038SOL    HW131113   6.384   4.221   3.643 -0.5248 -0.4887 -0.3495
 8038SOL    HW231114   6.484   4.287   3.532  0.3072 -0.3684  0.4651
 8039SOL     OW31115   5.226   0.606   6.590 -0.1895  0.8543  0.3369
 8039SOL    HW131116   5.260   0.513   6.596 -0.7905  0.6503  0.6379
 8039SOL    HW231117   5.270   0.662   6.660  1.8367  1.3320 -1.2876
 8040SOL     OW31118   4.883   0.648   6.539  0.1523  0.5112 -1.1200
 8040SOL    HW131119   4.947   0.639   6.463 -0.3813 -2.1234 -1.2896
 8040SOL    HW231120   4.813   0.715   6.516 -0.2996 -0.6332 -3.1829
 8041SOL     OW31121   1.432   0.183   5.827 -0.3349  0.4104 -0.2321
 8041SOL    HW131122   1.376   0.116   5.875  0.3156 -0.3427 -0.5327
 8041SOL    HW231123   1.405   0.275   5.856 -0.7230  0.0014  0.7133
 8042SOL     OW31124   6.188   0.665   6.729  0.1211 -0.4090 -0.6424
 8042SOL    HW131125   6.100   0.711   6.738  0.1425 -0.4518 -0.1779
 8042SOL    HW231126   6.253   0.706   6.793  0.2863 -0.7339 -0.6010
 8043SOL     OW31127   3.749   3.110   0.041  0.0324 -0.7651 -0.8344
 8043SOL    HW131128   3.721   3.107  -0.055  1.9532 -0.7125 -1.4226
 8043SOL    HW231129   3.840   3.152   0.048 -1.4840  2.3828  1.3463
 8044SOL     OW31130   5.774   2.199   5.485  0.0431 -0.0095 -0.0265
 8044SOL    HW131131   5.758   2.124   5.549 -1.5551  0.9392  0.7204
 8044SOL    HW231132   5.719   2.278   5.512  0.1134  0.7449 -1.9938
 8045SOL     OW31133   4.346   3.017   4.694 -0.2898 -0.4015 -0.1589
 8045SOL    HW131134   4.356   3.085   4.621 -0.5697 -0.7683 -0.5419
 8045SOL    HW231135   4.330   3.063   4.781 -1.1765  0.0083 -0.5337
 8046SOL     OW31136   4.071   3.346   3.172  0.0002  0.5954  0.6480
 8046SOL    HW131137   3.992   3.292   3.142  0.7250 -0.3087  0.3443
 8046SOL    HW231138   4.093   3.415   3.102  0.1091  0.1706  0.2594
 8047SOL     OW31139   0.247   4.200   7.007  0.1385  0.1350 -0.1987
 8047SOL    HW131140   0.162   4.190   6.955  0.4124  0.2335 -0.6620
 8047SOL    HW231141   0.297   4.279   6.973 -0.2612  0.9254  1.0160
 8048SOL     OW31142   3.298   3.934   2.210 -0.3971 -0.4034 -0.1475
 8048SOL    HW131143   3.257   4.013   2.258 -1.0359  0.6340 -2.3151
 8048SOL    HW231144   3.225   3.871   2.182 -0.3091  0.1601 -1.7411
 8049SOL     OW31145   3.966   6.306   5.289  0.3796 -0.2107 -0.8257
 8049SOL    HW131146   3.903   6.369   5.243  1.0959  0.0202 -1.4978
 8049SOL    HW231147   3.943   6.212   5.265 -1.2345 -0.2838  0.8482
 8050SOL     OW31148   0.909   3.396   6.558  0.3346  0.5301 -0.5322
 8050SOL    HW131149   0.966   3.322   6.596  1.8017  0.9552 -1.8300
 8050SOL    HW231150   0.889   3.463   6.630 -1.9013 -1.6295  0.9299
 8051SOL     OW31151   1.765   3.916   4.805 -0.5285  0.1480  0.3779
 8051SOL    HW131152   1.738   3.841   4.866  0.5176 -1.1407 -0.7213
 8051SOL    HW231153   1.837   3.885   4.744 -1.6151  1.4142 -1.5944
 8052SOL     OW31154   0.636   1.822   2.787 -0.5999 -0.2046  0.5751
 8052SOL    HW131155   0.539   1.799   2.799 -1.1113  0.8288 -1.2481
 8052SOL    HW231156   0.674   1.764   2.715 -0.3351  0.5833  0.0782
 8053SOL     OW31157   0.154   3.295   2.996 -0.5497  0.0983  0.4482
 8053SOL    HW131158   0.162   3.380   3.047 -1.9999  0.0033  0.8443
 8053SOL    HW231159   0.245   3.253   2.987  0.0640  1.3240  0.8467
 8054SOL     OW31160   6.668   5.237   6.897 -0.2963  0.2075 -0.0245
 8054SOL    HW131161   6.743   5.303   6.888 -0.4735  0.4931  0.6044
 8054SOL    HW231162   6.701   5.146   6.868  0.2345  0.3696  0.0655
 8055SOL     OW31163   0.996   0.115   7.317 -0.0670  0.0465  0.0606
 8055SOL    HW131164   0.898   0.102   7.303  0.2860 -0.9938 -1.5349
 8055SOL    HW231165   1.011   0.168   7.401 -1.9293 -0.9010  1.0222
 8056SOL     OW31166   1.068   0.975   1.649 -0.3058 -0.5050 -0.0831
 8056SOL    HW131167   1.102   0.927   1.569  0.1089  2.7009 -1.9303
 8056SOL    HW231168   1.135   1.044   1.677 -2.3946  1.4252  0.2899
 8057SOL     OW31169   0.636   2.551   2.928 -0.1682  0.1551 -0.3351
 8057SOL    HW131170   0.542   2.521   2.946 -0.4068  0.2527 -1.4132
 8057SOL    HW231171   0.694   2.525   3.006 -0.6527 -1.8541 -0.6004
 8058SOL     OW31172   3.248   2.867   1.823  0.0034 -0.0271  0.5362
 8058SOL    HW131173   3.180   2.817   1.876 -0.2288  0.6875  0.9247
 8058SOL    HW231174   3.203   2.942   1.774  0.4710  0.2795  0.5756
 8059SOL     OW31175   2.153   3.226   0.536  0.4602 -0.5496 -0.6091
 8059SOL    HW131176   2.223   3.270   0.592  0.3524 -1.8430  0.5570
 8059SOL    HW231177   2.187   3.137   0.504 -1.4203 -2.1747  1.7714
 8060SOL     OW31178   3.198   6.201   1.554 -0.8377 -0.6399 -0.2627
 8060SOL    HW131179   3.243   6.231   1.638 -0.7825 -2.1138  0.2481
 8060SOL    HW231180   3.102   6.228   1.557 -0.8132 -0.5956  0.2203
 8061SOL     OW31181   0.522   3.737   4.377  0.1704 -0.1888 -0.4694
 8061SOL    HW131182   0.528   3.744   4.476  1.3945 -0.1621 -0.5459
 8061SOL    HW231183   0.460   3.808   4.342  0.1936  0.1664  0.2106
 8062SOL     OW31184   3.948   1.139   1.825  0.2988 -0.4889  0.1221
 8062SOL    HW131185   3.871   1.096   1.778  0.6584  0.6164 -1.5263
 8062SOL    HW231186   3.956   1.101   1.917 -2.4512 -0.3385  0.4584
 8063SOL     OW31187   4.276   1.232   2.534 -0.1165  0.3225 -0.1327
 8063SOL    HW131188   4.238   1.148   2.573 -0.2315 -0.0531 -1.0345
 8063SOL    HW231189   4.376   1.227   2.532 -0.1089  0.3733  0.1802
 8064SOL     OW31190   5.125   3.487   4.207 -0.0946 -0.1432 -0.4566
 8064SOL    HW131191   5.141   3.515   4.112 -0.9080  1.5548 -0.1079
 8064SOL    HW231192   5.174   3.548   4.269  1.3012 -1.8913  0.2016
 8065SOL     OW31193   6.025   5.581   1.348  0.0067 -0.0313  0.4311
 8065SOL    HW131194   6.048   5.553   1.255 -0.5048 -0.0155  0.2989
 8065SOL    HW231195   5.944   5.531   1.379 -1.1434  1.5501  0.0521
 8066SOL     OW31196   2.511   0.978   6.061 -0.3338  0.1506 -0.3247
 8066SOL    HW131197   2.473   0.890   6.088  1.3386  0.1759  2.3453
 8066SOL    HW231198   2.604   0.986   6.097 -0.2946  2.8260 -0.9214
 8067SOL     OW31199   3.623   4.174   0.074  0.3525 -0.7874  0.1242
 8067SOL    HW131200   3.573   4.088   0.082 -0.8563 -0.0669  0.4609
 8067SOL    HW231201   3.721   4.157   0.084  0.0233 -1.9331  1.5594
 8068SOL     OW31202   0.285   1.425   3.643 -0.0212 -0.6214  0.4506
 8068SOL    HW131203   0.355   1.356   3.661  0.0266 -0.9208 -0.8213
 8068SOL    HW231204   0.224   1.392   3.571 -0.1402  0.5698 -0.0010
 8069SOL     OW31205   1.083   3.991   3.592  0.0468 -0.6746 -0.5762
 8069SOL    HW131206   1.130   3.922   3.536 -0.7421 -2.2077  0.6231
 8069SOL    HW231207   0.985   3.973   3.593 -0.2465  0.8199 -0.7073
 8070SOL     OW31208   2.122   1.283   6.724 -0.6681 -0.4193  0.5355
 8070SOL    HW131209   2.112   1.237   6.636  1.0009 -0.5649  0.4122
 8070SOL    HW231210   2.208   1.255   6.767 -0.8317  0.6727  1.6019
 8071SOL     OW31211   6.617   5.087   3.912  0.1351  0.2935  0.1856
 8071SOL    HW131212   6.518   5.086   3.900 -0.0600  1.7742  1.4511
 8071SOL    HW231213   6.658   5.146   3.842  0.0844  0.0427 -0.0564
 8072SOL     OW31214   3.018   2.665   5.569  0.0622 -0.3390 -0.1582
 8072SOL    HW131215   2.961   2.601   5.621  1.0922  0.6655  2.2765
 8072SOL    HW231216   3.101   2.618   5.539  1.1896  0.0074  2.3008
 8073SOL     OW31217   0.436   6.843   0.615  0.4167 -0.2132  0.9813
 8073SOL    HW131218   0.528   6.881   0.629 -0.2123  0.3855  3.7611
 8073SOL    HW231219   0.392   6.890   0.539  0.9787  2.1784  2.0904
 8074SOL     OW31220   1.528   4.419   7.000  0.5998  0.0059  0.3596
 8074SOL    HW131221   1.552   4.503   6.952 -0.3523  0.9964  1.5680
 8074SOL    HW231222   1.455   4.371   6.952  0.7309  0.1880 -0.0147
 8075SOL     OW31223   3.366   4.868   5.795 -0.4253 -0.3409  0.5596
 8075SOL    HW131224   3.435   4.846   5.726 -0.4677 -1.2937  0.8194
 8075SOL    HW231225   3.294   4.798   5.794 -1.6541  0.8874 -0.0509
 8076SOL     OW31226   1.045   1.593   2.518  0.5558  0.5841  0.6512
 8076SOL    HW131227   1.040   1.493   2.510  0.9217  0.5898  0.3608
 8076SOL    HW231228   1.131   1.618   2.562  0.2368  0.7473  1.1875
 8077SOL     OW31229   4.578   0.379   6.919  0.2965  0.4368  0.0768
 8077SOL    HW131230   4.505   0.357   6.984  0.6769  1.1546  0.7698
 8077SOL    HW231231   4.539   0.425   6.839 -0.5240 -2.8229 -1.4767
 8078SOL     OW31232   3.979   5.176   5.061  0.3492  0.1026 -0.2779
 8078SOL    HW131233   3.906   5.216   5.117 -2.5658 -1.7305 -2.6022
 8078SOL    HW231234   3.978   5.217   4.970  0.2531 -2.0282 -1.2611
 8079SOL     OW31235   4.321   1.169   1.376  0.4081  0.1641 -0.4242
 8079SOL    HW131236   4.274   1.092   1.419  0.1509  0.3400 -0.3912
 8079SOL    HW231237   4.326   1.153   1.277 -0.6156  0.6160 -0.5565
 8080SOL     OW31238   6.937   2.835   2.080 -0.1547 -0.1005  0.1411
 8080SOL    HW131239   6.993   2.891   2.141 -0.1798 -0.3809  0.4255
 8080SOL    HW231240   6.985   2.820   1.994 -0.0943  0.2495  0.1155
 8081SOL     OW31241   1.711   4.857   4.234  0.2929  0.2108 -0.2034
 8081SOL    HW131242   1.669   4.767   4.243 -2.3849  1.5777  1.5932
 8081SOL    HW231243   1.786   4.866   4.300 -0.9169  0.0890  1.2058
 8082SOL     OW31244   2.389   2.796   5.793  0.1947  0.0710  0.0963
 8082SOL    HW131245   2.463   2.748   5.746 -0.2465 -0.1772 -0.3646
 8082SOL    HW231246   2.424   2.877   5.839  1.0874 -1.1393  1.5590
 8083SOL     OW31247   2.421   5.027   6.179 -0.0780 -0.0414 -0.3222
 8083SOL    HW131248   2.348   5.022   6.247 -1.7033 -0.9836 -2.0757
 8083SOL    HW231249   2.463   4.936   6.169 -0.3333 -0.0811 -1.0752
 8084SOL     OW31250   2.597   5.915   6.707  0.0593 -0.6271  0.3965
 8084SOL    HW131251   2.576   5.979   6.633 -1.6644 -1.3449  0.2315
 8084SOL    HW231252   2.607   5.965   6.793 -0.5445 -0.0567  0.1404
 8085SOL     OW31253   3.596   0.022   0.845  0.6258  0.0428 -0.5147
 8085SOL    HW131254   3.685   0.018   0.890  0.2008  0.9999  0.4276
 8085SOL    HW231255   3.584   0.111   0.801  1.0741 -0.9134 -2.6315
 8086SOL     OW31256   2.873   1.181   6.183  0.3438  0.3819 -0.0796
 8086SOL    HW131257   2.950   1.181   6.247  0.8644 -0.0447 -0.7075
 8086SOL    HW231258   2.826   1.093   6.187 -0.3409  0.7727  0.5747
 8087SOL     OW31259   4.537   2.496   1.172  0.3663 -1.0636  0.5314
 8087SOL    HW131260   4.512   2.571   1.110 -1.0001 -0.0795  2.2457
 8087SOL    HW231261   4.622   2.454   1.140  0.1512 -0.0141 -1.5211
 8088SOL     OW31262   3.455   5.038   4.458 -0.7815 -0.1303 -0.2163
 8088SOL    HW131263   3.442   4.949   4.502  1.3304 -0.1208  0.4802
 8088SOL    HW231264   3.453   5.110   4.528 -2.6475  0.4140 -0.7967
 8089SOL     OW31265   2.204   4.142   4.302 -0.0374 -0.6029  0.0307
 8089SOL    HW131266   2.106   4.129   4.290 -0.1458 -0.0530  0.3159
 8089SOL    HW231267   2.221   4.192   4.387  0.5164 -1.1689  0.2579
 8090SOL     OW31268   4.794   0.012   5.065  0.1491 -0.7884 -0.0660
 8090SOL    HW131269   4.746  -0.006   4.979  0.7363 -1.6378 -0.2232
 8090SOL    HW231270   4.891  -0.010   5.054  1.0766  3.1143 -0.4681
 8091SOL     OW31271   5.531   2.794   5.270  0.2425  0.4160  0.2361
 8091SOL    HW131272   5.518   2.695   5.273 -4.2415  0.9127  0.4376
 8091SOL    HW231273   5.553   2.827   5.362  0.3907 -0.2489  0.4419
 8092SOL     OW31274   7.070   5.802   5.205 -0.3396  0.4167 -0.2470
 8092SOL    HW131275   7.029   5.752   5.282 -1.1421  0.5070 -0.6110
 8092SOL    HW231276   7.087   5.738   5.130  0.3259  0.3531 -0.0452
 8093SOL     OW31277   3.462   3.434   1.355  0.1594 -0.1753 -0.2316
 8093SOL    HW131278   3.397   3.377   1.305  1.3764 -1.0044 -0.8870
 8093SOL    HW231279   3.419   3.465   1.441 -0.2187 -2.8377  0.6031
 8094SOL     OW31280   5.579   1.420   3.806 -0.0552  0.4613 -0.3348
 8094SOL    HW131281   5.649   1.426   3.735 -0.7439 -1.2192 -1.1668
 8094SOL    HW231282   5.499   1.372   3.771 -0.9452  0.8149  1.1627
 8095SOL     OW31283   1.132   2.669   0.713  0.6956 -0.0119  0.0564
 8095SOL    HW131284   1.084   2.742   0.664  0.8980 -0.2237 -0.4536
 8095SOL    HW231285   1.079   2.644   0.794  0.2395  0.1680 -0.1800
 8096SOL     OW31286   5.287   4.582   4.857  0.0022  0.1962 -0.2129
 8096SOL    HW131287   5.358   4.537   4.801 -0.0291  0.3687 -0.3903
 8096SOL    HW231288   5.310   4.678   4.868 -0.3717  0.3226 -0.5351
 8097SOL     OW31289   6.612   2.369   7.028  0.2169 -0.3720 -0.1636
 8097SOL    HW131290   6.659   2.282   7.045 -0.8618 -0.7776  0.8493
 8097SOL    HW231291   6.667   2.425   6.967  1.3415 -1.4147 -0.1343
 8098SOL     OW31292   5.387   7.087   1.289  0.0317 -0.5543 -0.7582
 8098SOL    HW131293   5.468   7.094   1.346 -0.7355  1.8420  0.0967
 8098SOL    HW231294   5.381   7.167   1.229 -0.9292 -1.4220 -1.8526
 8099SOL     OW31295   0.317   2.828   3.780  0.1105 -0.4529  0.0558
 8099SOL    HW131296   0.322   2.899   3.851  2.4467 -1.8006  1.2903
 8099SOL    HW231297   0.301   2.739   3.823 -0.3541 -1.0208 -1.2760
 8100SOL     OW31298   3.459   1.848   5.976  0.3042 -0.0466  0.0115
 8100SOL    HW131299   3.491   1.845   6.071  0.8448 -2.2371 -0.2052
 8100SOL    HW231300   3.364   1.880   5.974  0.5758  0.8463  1.2121
 8101SOL     OW31301   4.251   6.694   5.715 -0.3603  0.1929 -0.3487
 8101SOL    HW131302   4.304   6.767   5.674  0.4358  0.1597  0.6126
 8101SOL    HW231303   4.259   6.698   5.815 -1.2772 -0.4735 -0.2375
 8102SOL     OW31304   5.720   2.839   4.007 -0.3938  0.3374 -0.2142
 8102SOL    HW131305   5.795   2.873   4.064  0.2933 -0.6448 -0.5146
 8102SOL    HW231306   5.665   2.774   4.059 -1.1322  1.1706  0.0540
 8103SOL     OW31307   6.674   5.072   2.314  0.2574 -0.2907  0.5127
 8103SOL    HW131308   6.709   5.163   2.339  1.0234 -0.9610  1.9297
 8103SOL    HW231309   6.732   5.034   2.241 -0.5660  0.6945 -0.6674
 8104SOL     OW31310   6.269   0.070   5.500 -0.1323  0.0908  0.0610
 8104SOL    HW131311   6.192   0.033   5.552  0.2411  1.7660  1.8616
 8104SOL    HW231312   6.323   0.130   5.559  0.6033  1.6338 -2.1450
 8105SOL     OW31313   0.554   3.150   2.092 -0.0451  0.1270 -0.1412
 8105SOL    HW131314   0.512   3.241   2.094 -0.6994 -0.2049  1.9164
 8105SOL    HW231315   0.506   3.089   2.154  0.1161 -1.7838 -1.8399
 8106SOL     OW31316   0.786   4.365   2.364  0.2137  0.3064  0.3609
 8106SOL    HW131317   0.718   4.395   2.297 -0.0535 -0.7249  0.1750
 8106SOL    HW231318   0.787   4.430   2.441  0.2701  1.2942 -0.4653
 8107SOL     OW31319   4.806   6.498   3.226  0.7743  0.7120 -0.3728
 8107SOL    HW131320   4.796   6.499   3.126  0.6282  3.7159 -0.3905
 8107SOL    HW231321   4.858   6.579   3.254  0.6248  0.0019  2.0013
 8108SOL     OW31322   0.997   7.000   6.876 -0.2168  0.3798  0.7288
 8108SOL    HW131323   1.065   7.070   6.897 -0.9825  1.1748  0.5833
 8108SOL    HW231324   0.915   7.043   6.840 -0.4115 -0.6622 -0.0977
 8109SOL     OW31325   5.654   7.301   6.744  0.0044  0.3855 -0.2856
 8109SOL    HW131326   5.613   7.230   6.686 -2.4294  1.7064 -0.2330
 8109SOL    HW231327   5.684   7.260   6.830  0.1522 -0.8950 -0.9388
 8110SOL     OW31328   3.103   4.497   1.101  0.5726  0.2527 -0.0319
 8110SOL    HW131329   3.094   4.588   1.142  1.4066  0.2225  0.2339
 8110SOL    HW231330   3.143   4.506   1.009  2.9710 -0.0061  0.9378
 8111SOL     OW31331   7.097   3.001   2.278  0.1247 -0.1784  0.0616
 8111SOL    HW131332   7.133   3.072   2.217 -0.4895  0.1371  0.0644
 8111SOL    HW231333   7.118   3.025   2.373  1.2698 -0.7770 -0.0376
 8112SOL     OW31334   5.568   4.824   6.794 -0.0859  0.3998  0.2860
 8112SOL    HW131335   5.520   4.737   6.794 -2.1036  1.4763  1.7703
 8112SOL    HW231336   5.661   4.811   6.759 -1.0210 -1.9469 -1.4308
 8113SOL     OW31337   0.046   4.472   6.837 -0.3264  0.9343  0.1160
 8113SOL    HW131338   0.005   4.556   6.799 -1.7708  1.2323  2.2391
 8113SOL    HW231339   0.006   4.393   6.792 -0.5200  1.3402 -0.4336
 8114SOL     OW31340   1.678   2.875   1.838 -0.0763  0.1301  0.5070
 8114SOL    HW131341   1.663   2.792   1.890 -1.0965 -0.5402 -0.8206
 8114SOL    HW231342   1.740   2.857   1.762  0.9329  0.9593  1.1106
 8115SOL     OW31343   6.638   0.897   6.503  0.3439  0.0810 -0.2998
 8115SOL    HW131344   6.666   0.976   6.557 -0.8249  1.0333 -1.0626
 8115SOL    HW231345   6.688   0.896   6.417  0.3791 -0.0198 -0.2787
 8116SOL     OW31346   0.434   4.579   0.368  0.0298 -0.2343  0.3831
 8116SOL    HW131347   0.345   4.537   0.379 -0.4790  0.7579  0.1279
 8116SOL    HW231348   0.503   4.526   0.417 -0.4952 -1.7075 -0.4650
 8117SOL     OW31349   1.321   5.346   2.292  0.2723  0.0837  0.0616
 8117SOL    HW131350   1.302   5.381   2.384 -0.0164  0.0723  0.0090
 8117SOL    HW231351   1.323   5.246   2.295 -0.4816  0.0588 -0.0794
 8118SOL     OW31352   0.559   0.851   2.580  0.0991  0.6291 -0.2082
 8118SOL    HW131353   0.494   0.894   2.642 -1.0759  0.9717 -1.6495
 8118SOL    HW231354   0.545   0.887   2.487  1.4689 -0.2633 -0.7741
 8119SOL     OW31355   7.262   1.468   2.588 -0.1424  0.3887 -0.3039
 8119SOL    HW131356   7.180   1.411   2.600  0.6998 -0.6728  0.5761
 8119SOL    HW231357   7.237   1.564   2.599 -1.3112  0.0986 -0.2680
 8120SOL     OW31358   5.907   6.626   6.830  0.1328  0.5863 -0.6053
 8120SOL    HW131359   5.933   6.577   6.913  0.6519  1.0945 -0.4645
 8120SOL    HW231360   5.985   6.631   6.769  0.1552  1.4544 -0.5118
 8121SOL     OW31361   0.697   3.687   1.179 -0.3426  0.5225 -0.1988
 8121SOL    HW131362   0.784   3.713   1.138 -0.1609  0.8389  0.3866
 8121SOL    HW231363   0.626   3.685   1.108 -0.2143  1.8918 -0.3740
 8122SOL     OW31364   5.864   6.871   1.706  0.1681  0.3720 -0.4493
 8122SOL    HW131365   5.867   6.969   1.685 -1.5309  0.8540  1.2883
 8122SOL    HW231366   5.835   6.859   1.801 -0.0430 -1.8288 -0.7620
 8123SOL     OW31367   2.089   3.005   2.749  0.0987  0.3085 -0.2370
 8123SOL    HW131368   2.065   3.101   2.741 -1.3520 -0.0983 -0.9833
 8123SOL    HW231369   2.006   2.951   2.764  0.8112 -0.9063 -0.5695
 8124SOL     OW31370   1.421   3.424   5.418  0.9181 -0.0859  0.8926
 8124SOL    HW131371   1.433   3.507   5.472  0.1496  1.0428 -0.6204
 8124SOL    HW231372   1.331   3.424   5.376  1.5231 -0.8773 -0.4497
 8125SOL     OW31373   1.090   2.168   1.415  0.1446  0.3925  0.4628
 8125SOL    HW131374   1.054   2.225   1.341 -0.7320 -0.8478 -0.0780
 8125SOL    HW231375   1.028   2.093   1.432  2.3806 -1.7205 -0.4077
 8126SOL     OW31376   3.023   5.654   1.300  0.1925  0.1044  0.0080
 8126SOL    HW131377   2.958   5.584   1.329  1.2356 -0.6138  0.6500
 8126SOL    HW231378   2.981   5.745   1.309 -1.0842 -0.4232 -0.6142
 8127SOL     OW31379   0.881   3.723   0.009  0.6147  0.5097 -0.0499
 8127SOL    HW131380   0.857   3.705   0.105  0.7897 -1.0073 -0.2742
 8127SOL    HW231381   0.809   3.778  -0.033 -0.5620 -0.6621  0.3641
 8128SOL     OW31382   5.315   3.391   3.951  0.4489 -0.1170  0.0446
 8128SOL    HW131383   5.228   3.406   3.905  0.4179 -0.4718 -0.0120
 8128SOL    HW231384   5.313   3.303   3.999 -0.0632  0.8938  1.9440
 8129SOL     OW31385   2.148   5.158   3.827  0.1944  0.5092 -0.3491
 8129SOL    HW131386   2.140   5.193   3.734  0.0366 -1.2930 -1.0305
 8129SOL    HW231387   2.234   5.191   3.868 -0.3022  2.2786 -0.6834
 8130SOL     OW31388   6.963   1.077   6.911 -0.0093 -0.1832  0.0565
 8130SOL    HW131389   6.971   1.176   6.920 -0.5513 -0.0195 -1.1657
 8130SOL    HW231390   7.020   1.044   6.836 -0.0540 -0.7660  0.2676
 8131SOL     OW31391   6.423   3.276   3.437 -0.5472 -0.0989  0.5550
 8131SOL    HW131392   6.428   3.347   3.508 -0.7851 -0.5412  1.0160
 8131SOL    HW231393   6.397   3.319   3.350  2.5477  0.8833  0.0541
 8132SOL     OW31394   0.434   2.727   1.104  0.7042 -0.4030 -0.1665
 8132SOL    HW131395   0.502   2.713   1.176  0.3860 -1.1041  0.0042
 8132SOL    HW231396   0.480   2.750   1.018  1.0444  1.3945  0.4802
 8133SOL     OW31397   3.845   6.940   4.230 -0.0390 -0.2836 -0.4448
 8133SOL    HW131398   3.763   6.934   4.172  0.7100 -0.4150 -1.5109
 8133SOL    HW231399   3.854   7.033   4.265 -0.8205 -0.3490 -0.0507
 8134SOL     OW31400   5.615   0.377   4.398 -0.1671 -0.4500  0.4786
 8134SOL    HW131401   5.632   0.403   4.493 -0.4308  0.1311  0.3692
 8134SOL    HW231402   5.644   0.282   4.384 -1.5384 -1.0537  1.5236
 8135SOL     OW31403   4.676   7.119   1.623 -0.1041 -0.7236  0.3469
 8135SOL    HW131404   4.742   7.173   1.676 -2.1019  0.9732  1.1812
 8135SOL    HW231405   4.701   7.023   1.627  1.3869 -0.2977  2.0293
 8136SOL     OW31406   3.108   6.600   1.282 -0.3440 -0.1632 -0.1089
 8136SOL    HW131407   3.198   6.626   1.247 -1.0914  2.3694 -0.2176
 8136SOL    HW231408   3.061   6.681   1.317 -2.6340 -1.4477 -0.1279
 8137SOL     OW31409   4.267   6.728   3.629  0.3038  0.2510  0.3303
 8137SOL    HW131410   4.309   6.685   3.548 -1.1829 -0.1446 -0.2476
 8137SOL    HW231411   4.311   6.816   3.646  0.8889  0.1694 -0.6766
 8138SOL     OW31412   4.531   3.142   6.249 -1.0981  0.0648  0.3971
 8138SOL    HW131413   4.562   3.233   6.224 -3.0096  0.5318 -0.3816
 8138SOL    HW231414   4.589   3.105   6.322 -0.1477  1.7848  0.5249
 8139SOL     OW31415   4.868   0.954   6.463  0.0037 -0.2194  0.1988
 8139SOL    HW131416   4.836   0.911   6.378  1.2352 -0.2343 -0.2647
 8139SOL    HW231417   4.889   1.050   6.445  1.5419 -0.5503  0.1572
 8140SOL     OW31418   3.822   5.153   7.106  0.4311  0.1870 -0.1703
 8140SOL    HW131419   3.844   5.064   7.147  0.0767 -0.1073 -0.6093
 8140SOL    HW231420   3.815   5.222   7.178 -0.2319 -0.3358  0.2696
 8141SOL     OW31421   4.842   7.256   1.783 -0.5259 -0.1460 -0.3183
 8141SOL    HW131422   4.930   7.297   1.809 -0.7377  0.5572 -0.6847
 8141SOL    HW231423   4.771   7.287   1.847 -0.6931  0.0871 -0.6150
 8142SOL     OW31424   3.962   1.451   6.734  0.4707 -0.0204 -0.2188
 8142SOL    HW131425   3.893   1.380   6.746  0.8146 -0.2914  0.1754
 8142SOL    HW231426   4.049   1.410   6.708 -0.1151  0.5188 -3.1382
 8143SOL     OW31427   4.758   4.479   6.653  0.2201 -0.2849  0.2531
 8143SOL    HW131428   4.672   4.506   6.608 -0.1444  0.1165  1.1813
 8143SOL    HW231429   4.772   4.381   6.642 -0.8038 -0.5031  0.8336
 8144SOL     OW31430   5.865   3.742   3.076 -0.2684 -0.0388 -0.1892
 8144SOL    HW131431   5.957   3.728   3.041  0.1465  4.7444 -1.4228
 8144SOL    HW231432   5.863   3.727   3.174  2.3930  1.8968  0.1977
 8145SOL     OW31433   7.015   2.779   3.607 -0.4411  0.8772  0.1381
 8145SOL    HW131434   7.066   2.761   3.691 -2.2327 -1.8767  0.7070
 8145SOL    HW231435   7.060   2.733   3.530 -1.4155 -0.6330  0.4510
 8146SOL     OW31436   0.585   4.500   0.134 -0.4750 -0.0253 -0.7840
 8146SOL    HW131437   0.534   4.531   0.214  0.7813 -1.1746  0.5051
 8146SOL    HW231438   0.678   4.476   0.161 -0.2145 -1.0502 -2.4684
 8147SOL     OW31439   5.973   5.425   0.416 -0.2658 -0.3068  0.2934
 8147SOL    HW131440   5.911   5.454   0.343  1.2332  0.2966 -0.7617
 8147SOL    HW231441   6.037   5.357   0.381  0.1487 -0.3755  1.1713
 8148SOL     OW31442   3.618   4.245   6.113 -0.3978  0.1146 -0.6587
 8148SOL    HW131443   3.669   4.330   6.127 -0.6830  0.1227  0.4339
 8148SOL    HW231444   3.595   4.235   6.017  1.5052  0.2099 -1.1369
 8149SOL     OW31445   7.258   5.241   7.064  0.3126 -0.5986 -0.2120
 8149SOL    HW131446   7.283   5.281   6.976  1.9291 -0.7930  0.1443
 8149SOL    HW231447   7.271   5.142   7.061  1.9146 -0.4291  0.7404
 8150SOL     OW31448   3.133   0.326   7.233  0.0326 -0.1205  0.1477
 8150SOL    HW131449   3.224   0.346   7.269  0.1798 -1.5698  0.6042
 8150SOL    HW231450   3.076   0.287   7.305 -1.8140  3.2142  0.5941
 8151SOL     OW31451   3.867   7.261   0.861  0.0972 -0.6923 -0.0370
 8151SOL    HW131452   3.801   7.186   0.856  1.5372 -1.9869  0.0570
 8151SOL    HW231453   3.875   7.292   0.955 -1.8248  0.8300 -0.3221
 8152SOL     OW31454   6.375   0.761   1.087  0.1385 -0.1285 -0.2758
 8152SOL    HW131455   6.298   0.706   1.053 -0.4993  1.8860 -2.2716
 8152SOL    HW231456   6.352   0.800   1.175 -1.5547  1.2496 -1.3043
 8153SOL     OW31457   1.918   3.691   2.965  0.2826  0.1055 -0.1954
 8153SOL    HW131458   1.863   3.614   2.996  0.7632 -0.0577  0.2656
 8153SOL    HW231459   2.015   3.666   2.968  0.6415  1.5904  2.5565
 8154SOL     OW31460   0.008   2.480   0.669  0.2464  0.5042 -0.6990
 8154SOL    HW131461   0.049   2.571   0.679 -2.3364  1.4879  1.5992
 8154SOL    HW231462  -0.046   2.477   0.586 -1.9209  2.0425  0.6031
 8155SOL     OW31463   6.658   4.603   2.690  0.1736 -0.1205  0.6952
 8155SOL    HW131464   6.678   4.577   2.596 -0.5429  0.6204  0.3361
 8155SOL    HW231465   6.631   4.522   2.742 -0.8336 -0.3093 -0.1085
 8156SOL     OW31466   5.792   6.469   4.581 -0.0679 -0.2561  0.0879
 8156SOL    HW131467   5.803   6.545   4.645 -1.4461 -0.0409  0.0892
 8156SOL    HW231468   5.815   6.499   4.489 -1.4308  0.4288 -0.0481
 8157SOL     OW31469   2.551   1.678   1.674 -0.5311  0.5278 -0.5489
 8157SOL    HW131470   2.577   1.765   1.633  4.0759  0.9590  2.8860
 8157SOL    HW231471   2.485   1.694   1.748  1.2729  1.3403  0.9274
 8158SOL     OW31472   4.405   7.171   3.886 -0.3079 -0.3301  0.4201
 8158SOL    HW131473   4.459   7.139   3.964  2.0556 -0.4810 -1.2038
 8158SOL    HW231474   4.434   7.263   3.862  2.0576 -1.8493 -2.8805
 8159SOL     OW31475   2.382   5.239   2.079  0.3419 -0.3438  0.4177
 8159SOL    HW131476   2.457   5.299   2.052  0.4538 -0.7866 -0.2604
 8159SOL    HW231477   2.417   5.147   2.096  0.3480  0.0072  2.4931
 8160SOL     OW31478   5.275   4.616   7.100  0.6723 -0.1015  0.4049
 8160SOL    HW131479   5.346   4.548   7.117  0.5521  0.0098  1.3868
 8160SOL    HW231480   5.247   4.613   7.004  0.2966 -1.7999  0.5536
 8161SOL     OW31481   2.499   1.677   7.127  0.8240  0.1903 -0.0927
 8161SOL    HW131482   2.492   1.735   7.208  2.3900 -0.4829  0.5368
 8161SOL    HW231483   2.467   1.585   7.148  3.2929 -0.5789  0.3999
 8162SOL     OW31484   3.088   0.167   0.122 -0.0333 -0.6262 -0.2372
 8162SOL    HW131485   3.002   0.144   0.076  1.1077  0.5898 -3.1065
 8162SOL    HW231486   3.136   0.082   0.145 -1.4167 -1.2936  0.2397
 8163SOL     OW31487   2.301   2.293   0.429  0.0767 -0.0298 -0.2009
 8163SOL    HW131488   2.252   2.367   0.382  1.6578  1.6991  0.8113
 8163SOL    HW231489   2.282   2.206   0.383 -1.3936  1.0695 -1.7341
 8164SOL     OW31490   5.944   6.577   3.286  0.6423 -0.5653  0.3299
 8164SOL    HW131491   5.953   6.479   3.273  0.3082 -0.5213 -0.2676
 8164SOL    HW231492   5.975   6.625   3.204 -0.1486 -0.2165  0.2282
 8165SOL     OW31493   1.074   1.610   3.961 -0.0180 -0.1280  0.1924
 8165SOL    HW131494   1.169   1.640   3.974 -0.2186  1.0896 -1.0142
 8165SOL    HW231495   1.020   1.686   3.925 -1.2979 -1.0209  0.1980
 8166SOL     OW31496   5.794   1.977   1.746 -0.3999  0.0105 -0.0437
 8166SOL    HW131497   5.867   2.042   1.727 -0.9185  0.2341 -1.3360
 8166SOL    HW231498   5.819   1.887   1.710 -0.0801 -0.2937  0.9256
 8167SOL     OW31499   4.038   1.570   7.214 -0.1154 -0.3394  0.5366
 8167SOL    HW131500   4.003   1.476   7.217 -0.6672 -0.1229  0.8190
 8167SOL    HW231501   3.966   1.632   7.184 -0.2391  0.2337  1.9898
 8168SOL     OW31502   1.019   0.111   1.429  0.1814  0.2825 -0.8228
 8168SOL    HW131503   0.976   0.020   1.425 -1.4783  0.9983 -0.0505
 8168SOL    HW231504   0.949   0.179   1.453  1.3193  1.8293 -1.8233
 8169SOL     OW31505   4.461   3.538   6.315  0.5296  0.0956  0.2278
 8169SOL    HW131506   4.390   3.494   6.260  1.3146 -0.0081 -0.7200
 8169SOL    HW231507   4.448   3.514   6.411 -0.3173 -0.4763 -0.0204
 8170SOL     OW31508   6.138   0.389   6.372  0.0878 -0.0136  0.5804
 8170SOL    HW131509   6.212   0.359   6.433  1.2317  0.0572 -0.7581
 8170SOL    HW231510   6.064   0.427   6.427  0.6376 -0.9440  2.0044
 8171SOL     OW31511   3.659   1.913   0.988  0.0600  0.2761  0.4855
 8171SOL    HW131512   3.736   1.872   1.037  0.9394  0.6200 -0.5760
 8171SOL    HW231513   3.577   1.908   1.044  0.4082 -1.8817  0.8401
 8172SOL     OW31514   4.576   6.373   6.232 -0.0905  0.2944  0.1738
 8172SOL    HW131515   4.509   6.345   6.300 -1.6072  1.3265 -0.8569
 8172SOL    HW231516   4.650   6.307   6.228 -0.5614 -0.3548  2.0189
 8173SOL     OW31517   3.559   0.796   3.368  0.3728 -0.0177  0.2198
 8173SOL    HW131518   3.579   0.756   3.279  0.0970 -1.2015  0.6860
 8173SOL    HW231519   3.467   0.836   3.367  0.2633 -0.2751  0.0610
 8174SOL     OW31520   2.919   4.213   1.493  0.2598 -0.0105  0.1207
 8174SOL    HW131521   2.948   4.169   1.408  0.4886  1.0740 -0.3634
 8174SOL    HW231522   2.999   4.252   1.538  0.1119 -0.4287  0.7510
 8175SOL     OW31523   0.743   2.002   0.599  0.4030  0.6899  0.3166
 8175SOL    HW131524   0.656   1.954   0.584  1.3031 -0.6965 -0.6476
 8175SOL    HW231525   0.818   1.936   0.595  1.4725  1.8115  1.5905
 8176SOL     OW31526   5.596   3.413   0.259  0.1056 -0.2020  0.3475
 8176SOL    HW131527   5.570   3.443   0.350 -1.1894  0.7986 -0.3423
 8176SOL    HW231528   5.526   3.441   0.193  1.1666 -0.6606 -0.9953
 8177SOL     OW31529   6.838   2.163   2.604 -0.1293  0.2149 -0.1942
 8177SOL    HW131530   6.757   2.136   2.552  0.4540 -1.3481 -0.3120
 8177SOL    HW231531   6.877   2.083   2.650  0.5541  1.2070  0.9828
 8178SOL     OW31532   4.099   1.975   7.255 -0.9429  0.0961  0.0951
 8178SOL    HW131533   4.006   1.990   7.222 -1.0322  2.3167  1.2604
 8178SOL    HW231534   4.100   1.897   7.318 -2.1247  0.3941  0.5000
 8179SOL     OW31535   2.802   3.989   3.860  0.0013 -0.5895 -0.0811
 8179SOL    HW131536   2.719   3.957   3.904  0.2938 -0.2954  0.7008
 8179SOL    HW231537   2.866   4.021   3.930 -0.2719  1.6513 -0.8146
 8180SOL     OW31538   6.367   3.506   6.518 -0.1411 -0.5820 -0.1022
 8180SOL    HW131539   6.361   3.545   6.427  0.1901  1.1898  0.6241
 8180SOL    HW231540   6.313   3.422   6.522 -1.1541 -0.0126 -1.5755
 8181SOL     OW31541   5.283   7.264   2.498  0.1337  0.6526 -0.1077
 8181SOL    HW131542   5.201   7.298   2.452 -1.5146  0.0734  2.3031
 8181SOL    HW231543   5.328   7.339   2.546 -0.8158  0.3809  1.2347
 8182SOL     OW31544   6.319   3.152   5.983 -0.0537 -0.2811  0.1326
 8182SOL    HW131545   6.356   3.227   5.928 -1.8424 -0.4426 -1.3437
 8182SOL    HW231546   6.237   3.115   5.938  1.4454 -3.8794  0.2286
 8183SOL     OW31547   3.314   5.327   3.008 -0.5014  0.0189 -0.0041
 8183SOL    HW131548   3.248   5.284   2.946  0.7740 -1.7130 -0.2080
 8183SOL    HW231549   3.297   5.425   3.012 -0.8145  0.1186 -2.8428
 8184SOL     OW31550   5.057   3.263   5.995 -0.1933  0.0376  0.2892
 8184SOL    HW131551   5.032   3.167   6.010  1.3683 -0.5358 -0.6010
 8184SOL    HW231552   5.137   3.286   6.052 -0.0142  0.5444 -0.1583
 8185SOL     OW31553   5.410   1.195   2.684 -0.3383 -0.2918  0.1622
 8185SOL    HW131554   5.364   1.268   2.734  1.7714  2.2400 -1.4214
 8185SOL    HW231555   5.445   1.126   2.748 -0.5372  1.1916  1.8866
 8186SOL     OW31556   7.284   3.099   4.168 -0.0987  0.1582 -0.3008
 8186SOL    HW131557   7.216   3.168   4.191 -1.0735 -0.9425  0.1847
 8186SOL    HW231558   7.314   3.053   4.251  0.3286 -0.1916 -0.6481
 8187SOL     OW31559   2.441   3.525   0.835  0.0899  0.4184 -0.9322
 8187SOL    HW131560   2.534   3.562   0.835 -0.2040  1.1726 -0.9195
 8187SOL    HW231561   2.430   3.462   0.759  1.7701 -2.6657  1.2630
 8188SOL     OW31562   2.326   0.717   5.692  0.0632  0.7354 -0.3204
 8188SOL    HW131563   2.382   0.651   5.641  0.4673 -0.2386  1.3518
 8188SOL    HW231564   2.372   0.806   5.692 -0.3119  0.9553 -2.2814
 8189SOL     OW31565   0.993   1.090   4.541 -0.1537  0.1199 -0.2971
 8189SOL    HW131566   0.987   1.190   4.529 -0.6874 -0.1083 -2.0770
 8189SOL    HW231567   1.001   1.047   4.452 -1.3123 -1.5413  0.3890
 8190SOL     OW31568   5.447   4.230   6.418  0.8422 -0.0071  0.3281
 8190SOL    HW131569   5.418   4.237   6.513 -0.0248 -1.3030  0.1735
 8190SOL    HW231570   5.462   4.134   6.394  2.2621  0.4098 -0.4919
 8191SOL     OW31571   6.557   4.882   7.148 -0.1072  0.1075  0.0982
 8191SOL    HW131572   6.634   4.818   7.151  0.6980  1.0910  0.5197
 8191SOL    HW231573   6.515   4.878   7.057 -1.1295 -2.2452  0.6321
 8192SOL     OW31574   3.343   4.935   6.073 -0.0893 -0.1056  0.3673
 8192SOL    HW131575   3.356   4.901   5.979  1.9897  1.5485  0.0122
 8192SOL    HW231576   3.330   5.034   6.070 -0.4756 -0.1095  1.8171
 8193SOL     OW31577   4.101   6.323   0.011  0.4429  0.1020 -0.2133
 8193SOL    HW131578   4.047   6.351   0.090  2.1716 -0.9916  1.3842
 8193SOL    HW231579   4.142   6.404  -0.032 -1.3371  0.7979 -0.6395
 8194SOL     OW31580   6.925   6.852   0.110 -0.2044 -0.2172  0.3657
 8194SOL    HW131581   6.882   6.936   0.077  0.6586  1.0530  2.3253
 8194SOL    HW231582   6.891   6.832   0.202 -1.4145 -2.7907 -0.6128
 8195SOL     OW31583   6.116   5.894   1.296 -0.6242  0.0971  0.4994
 8195SOL    HW131584   6.121   5.863   1.201 -0.0104  0.5782  0.3686
 8195SOL    HW231585   6.067   5.827   1.350 -0.4244 -0.4882 -0.0363
 8196SOL     OW31586   0.944   1.276   1.960  0.9758 -0.8171 -0.2086
 8196SOL    HW131587   0.871   1.297   1.895 -0.9761 -0.6395  1.9809
 8196SOL    HW231588   0.972   1.360   2.007 -0.4472 -1.5283  2.0158
 8197SOL     OW31589   2.355   3.328   6.360  0.6638 -0.0751  0.4384
 8197SOL    HW131590   2.283   3.353   6.295  0.5218 -1.4955  0.0359
 8197SOL    HW231591   2.318   3.326   6.453  0.7225  1.3655  0.5032
 8198SOL     OW31592   6.008   7.111   2.972  0.7058  0.1298  0.5778
 8198SOL    HW131593   5.954   7.188   3.007 -0.2783 -1.4077  2.5144
 8198SOL    HW231594   6.089   7.099   3.029 -0.1921 -1.5224  1.5473
 8199SOL     OW31595   4.034   4.029   3.002  0.3214 -0.2404 -0.0475
 8199SOL    HW131596   3.988   4.004   2.917 -0.8942  2.3450 -0.1988
 8199SOL    HW231597   4.121   4.073   2.981 -0.4715  1.3903 -0.0481
 8200SOL     OW31598   6.039   3.361   4.842  0.6620  0.0351  0.1775
 8200SOL    HW131599   6.129   3.318   4.852 -0.1131 -2.0422 -1.2466
 8200SOL    HW231600   6.015   3.365   4.744 -1.1494 -0.2495  0.5899
 8201SOL     OW31601   4.109   1.745   5.656  0.6249  0.0327  0.2379
 8201SOL    HW131602   4.165   1.699   5.725  2.0061  1.7164  0.2751
 8201SOL    HW231603   4.013   1.741   5.683  1.1736  0.9528  2.4505
 8202SOL     OW31604   1.196   1.860   6.329  0.4574 -0.5446  0.2228
 8202SOL    HW131605   1.262   1.795   6.293  0.0742 -2.3485  2.6956
 8202SOL    HW231606   1.105   1.818   6.331  0.3604 -0.2631  2.7035
 8203SOL     OW31607   3.551   6.678   3.533 -0.1877  0.2120 -0.2691
 8203SOL    HW131608   3.566   6.596   3.589 -0.9037  1.2233  1.4542
 8203SOL    HW231609   3.479   6.660   3.466 -0.4905 -0.5064  0.2408
 8204SOL     OW31610   5.975   3.891   2.449 -0.2448  0.4499  0.1062
 8204SOL    HW131611   5.964   3.914   2.546  1.4367  0.2322  0.3758
 8204SOL    HW231612   6.042   3.953   2.408  2.0951 -1.9659  0.1019
 8205SOL     OW31613   5.250   5.485   6.102 -0.6651  0.7791 -0.2344
 8205SOL    HW131614   5.187   5.554   6.065  0.8074  1.1723 -2.0892
 8205SOL    HW231615   5.232   5.397   6.059 -1.1149  0.4783  0.5548
 8206SOL     OW31616   7.343   4.350   0.050  0.1893  1.0912  0.0798
 8206SOL    HW131617   7.420   4.338  -0.012 -1.3459 -0.0331 -1.6566
 8206SOL    HW231618   7.315   4.446   0.050  1.1742  1.3887  0.2656
 8207SOL     OW31619   4.786   3.935   6.191 -0.2896  0.3687 -0.0465
 8207SOL    HW131620   4.770   4.017   6.136  0.5538  0.4244 -0.2155
 8207SOL    HW231621   4.710   3.871   6.178 -0.2862  0.5409 -0.9865
 8208SOL     OW31622   3.570   3.799   6.251 -0.0137  0.5279 -0.0914
 8208SOL    HW131623   3.486   3.825   6.204 -1.1228 -1.5765  0.7083
 8208SOL    HW231624   3.624   3.739   6.191  0.4091  0.9626 -0.1550
 8209SOL     OW31625   0.195   3.388   1.548 -0.4834 -0.4706 -0.0396
 8209SOL    HW131626   0.275   3.407   1.492 -0.6339 -2.2180 -0.8768
 8209SOL    HW231627   0.132   3.328   1.498 -2.6907  1.4782  0.3089
 8210SOL     OW31628   5.587   5.071   0.051  0.3614  0.7518  0.5750
 8210SOL    HW131629   5.597   5.048  -0.045 -1.0915  0.6051  0.4474
 8210SOL    HW231630   5.596   5.170   0.063 -0.5711  0.8983  0.1218
 8211SOL     OW31631   2.733   2.905   6.661 -1.1656 -0.1729 -0.0401
 8211SOL    HW131632   2.705   2.957   6.580 -2.4656 -1.8941 -0.7375
 8211SOL    HW231633   2.666   2.919   6.734 -1.2291 -0.4207 -0.0495
 8212SOL     OW31634   5.062   2.095   4.589 -0.6772 -0.5092  0.6059
 8212SOL    HW131635   5.082   2.136   4.500 -0.3592 -0.2704  0.7847
 8212SOL    HW231636   5.143   2.101   4.647 -1.3030  0.5893  1.3862
 8213SOL     OW31637   6.452   3.970   0.785 -0.5549 -0.5340  0.4420
 8213SOL    HW131638   6.489   3.980   0.878  0.7148 -0.1478 -0.0914
 8213SOL    HW231639   6.432   3.873   0.768 -0.0692 -0.7142  0.8572
 8214SOL     OW31640   5.715   7.331   6.042  0.2767 -0.0922  0.5845
 8214SOL    HW131641   5.801   7.319   6.093  0.3609  0.3524  0.5503
 8214SOL    HW231642   5.735   7.364   5.950  0.0812 -0.2414  0.4879
 8215SOL     OW31643   0.330   1.986   3.596 -0.2048 -0.0908 -0.0860
 8215SOL    HW131644   0.398   1.941   3.655 -1.1881  0.7455  1.7354
 8215SOL    HW231645   0.246   1.931   3.594 -0.9356  0.9433  1.0726
 8216SOL     OW31646   4.615   2.201   3.197  0.2502  0.0213 -0.4050
 8216SOL    HW131647   4.670   2.142   3.256  1.3674  0.4448 -0.9977
 8216SOL    HW231648   4.644   2.189   3.102 -1.2991 -0.4079 -0.8427
 8217SOL     OW31649   4.247   6.517   0.692  0.0101 -0.1058 -0.1290
 8217SOL    HW131650   4.297   6.568   0.622 -0.3139  1.1766  0.5468
 8217SOL    HW231651   4.309   6.491   0.765 -0.3901  2.0247  1.0089
 8218SOL     OW31652   4.656   3.807   3.584  0.0121 -0.1090  0.2226
 8218SOL    HW131653   4.714   3.841   3.658 -1.1177  0.1233  1.0197
 8218SOL    HW231654   4.579   3.757   3.623  0.9309 -2.4706 -0.8816
 8219SOL     OW31655   2.513   1.160   0.597  0.7500 -0.8766  0.2883
 8219SOL    HW131656   2.604   1.200   0.605  0.7476 -0.6482 -0.7065
 8219SOL    HW231657   2.492   1.107   0.679  1.4033 -0.1665  0.9195
 8220SOL     OW31658   5.351   0.679   6.812 -0.1778  0.1630  0.4077
 8220SOL    HW131659   5.321   0.596   6.859  3.6125 -1.0363  0.8560
 8220SOL    HW231660   5.398   0.738   6.878 -1.8217  2.1838 -0.1751
 8221SOL     OW31661   5.664   5.684   1.485  0.4698  0.2127  0.2430
 8221SOL    HW131662   5.705   5.768   1.520 -0.1124  0.7450 -0.3681
 8221SOL    HW231663   5.673   5.680   1.386 -0.0593 -0.1428  0.2038
 8222SOL     OW31664   3.215   4.561   4.070 -0.0938  0.1161 -0.0687
 8222SOL    HW131665   3.150   4.485   4.066 -0.5792  0.5216  0.1353
 8222SOL    HW231666   3.308   4.525   4.063 -0.3647 -0.3968 -1.1833
 8223SOL     OW31667   7.097   3.512   3.221 -0.3057 -0.1975  0.0484
 8223SOL    HW131668   7.182   3.525   3.272 -0.0577  2.6438 -1.0298
 8223SOL    HW231669   7.118   3.505   3.123 -1.3658  1.1968 -0.2787
 8224SOL     OW31670   0.670   5.133   4.793 -0.1130 -0.2703 -0.5748
 8224SOL    HW131671   0.762   5.157   4.824 -0.0514 -2.5019  1.1017
 8224SOL    HW231672   0.646   5.190   4.714  2.0246  1.5050 -0.0059
 8225SOL     OW31673   5.222   2.793   3.588  0.5190  0.5009 -0.2664
 8225SOL    HW131674   5.300   2.840   3.630  0.9314  0.5859 -1.1087
 8225SOL    HW231675   5.184   2.850   3.515  1.6337 -0.8567 -1.9488
 8226SOL     OW31676   1.990   7.089   3.489  0.2423  0.3696 -0.0825
 8226SOL    HW131677   2.089   7.093   3.474 -0.2885  1.1338 -3.7505
 8226SOL    HW231678   1.967   7.002   3.533  2.3592 -0.5427 -0.6981
 8227SOL     OW31679   4.291   2.445   6.160 -0.1056 -0.1024  0.2804
 8227SOL    HW131680   4.371   2.481   6.112  0.6495 -0.3125  1.3478
 8227SOL    HW231681   4.314   2.358   6.203 -0.3431  0.7056  2.1270
 8228SOL     OW31682   6.785   6.492   0.804  0.2641 -0.6694 -0.2666
 8228SOL    HW131683   6.860   6.440   0.846  1.3003 -0.0945 -1.3638
 8228SOL    HW231684   6.731   6.431   0.746  1.1327 -0.6738 -1.0963
 8229SOL     OW31685   1.523   4.436   0.712  0.1308 -0.5285 -0.4224
 8229SOL    HW131686   1.614   4.405   0.684 -0.6007 -3.3140  0.1626
 8229SOL    HW231687   1.484   4.494   0.641  2.0318  0.0499 -1.0273
 8230SOL     OW31688   3.218   5.282   2.015  0.6722 -0.1765  0.0209
 8230SOL    HW131689   3.186   5.325   2.100  1.5313  0.8159 -0.1545
 8230SOL    HW231690   3.192   5.185   2.015 -3.1567  0.7497 -0.5048
 8231SOL     OW31691   3.155   6.263   6.397 -0.0192  0.1426 -0.0741
 8231SOL    HW131692   3.227   6.195   6.411 -0.1132 -0.1065 -0.7972
 8231SOL    HW231693   3.121   6.294   6.486  0.4462 -0.3060  0.2640
 8232SOL     OW31694   0.784   1.212   3.083  0.6170  0.8598  0.3238
 8232SOL    HW131695   0.717   1.208   3.009  1.3474 -0.2972 -0.2947
 8232SOL    HW231696   0.765   1.140   3.150  0.8107  0.9900  0.5204
 8233SOL     OW31697   0.801   6.251   7.022 -0.1189 -0.3570  0.1823
 8233SOL    HW131698   0.777   6.302   7.105  2.2299 -0.2000  0.8025
 8233SOL    HW231699   0.860   6.308   6.965  0.0098 -1.2640 -0.5858
 8234SOL     OW31700   0.862   3.216   6.267  0.2710 -0.5371  0.3201
 8234SOL    HW131701   0.851   3.229   6.169 -0.3944 -1.0120  0.3350
 8234SOL    HW231702   0.925   3.285   6.302  0.7194 -0.5296 -0.4822
 8235SOL     OW31703   3.256   4.718   4.317  0.1918 -0.2840 -0.3265
 8235SOL    HW131704   3.191   4.657   4.362 -0.6134  1.1252  0.4477
 8235SOL    HW231705   3.271   4.688   4.223 -1.1030 -0.9700 -0.3190
 8236SOL     OW31706   3.482   5.600   4.509 -0.4056  0.2204  0.2103
 8236SOL    HW131707   3.410   5.536   4.482 -0.7924  0.6122  0.3117
 8236SOL    HW231708   3.512   5.652   4.428 -0.4369  0.2598  0.2240
 8237SOL     OW31709   2.244   1.950   7.207  0.9714  0.2996 -0.4599
 8237SOL    HW131710   2.215   1.944   7.112  1.2701  0.4498 -0.5622
 8237SOL    HW231711   2.250   2.046   7.234  0.9268  0.2584 -0.3010
 8238SOL     OW31712   2.280   0.955   6.708 -0.8416  0.3710  0.2173
 8238SOL    HW131713   2.241   0.871   6.745  0.2323  0.4828  1.6483
 8238SOL    HW231714   2.378   0.957   6.728 -0.4447  0.9617 -1.6883
 8239SOL     OW31715   5.064   2.500   2.796  0.2171 -0.0481 -0.2706
 8239SOL    HW131716   5.010   2.450   2.728  2.1607 -3.3027  0.4738
 8239SOL    HW231717   5.023   2.489   2.886  0.1948  0.4091 -0.2237
 8240SOL     OW31718   2.432   2.392   7.350  0.4097 -0.3199 -0.1778
 8240SOL    HW131719   2.505   2.392   7.282  0.6624  0.5874  0.0907
 8240SOL    HW231720   2.449   2.463   7.418  0.1115 -1.1498  0.7823
 8241SOL     OW31721   0.130   4.454   5.338 -0.6335 -0.6789  0.0015
 8241SOL    HW131722   0.037   4.459   5.302  0.0625 -0.8860 -1.9026
 8241SOL    HW231723   0.166   4.547   5.351 -0.3898 -0.5947 -1.2188
 8242SOL     OW31724   5.665   7.034   2.820 -0.4212  0.0757 -0.3666
 8242SOL    HW131725   5.734   6.978   2.865 -0.7107 -0.1666 -0.2249
 8242SOL    HW231726   5.639   6.992   2.733 -0.8743 -0.1759 -0.1081
 8243SOL     OW31727   4.027   0.737   2.914 -0.0693 -0.0011  0.1770
 8243SOL    HW131728   4.006   0.726   2.817 -1.8519 -2.2550  0.7704
 8243SOL    HW231729   4.105   0.799   2.924  0.4153 -0.0521 -2.6951
 8244SOL     OW31730   3.893   0.507   2.346 -0.0728 -0.1633  0.1880
 8244SOL    HW131731   3.892   0.606   2.364  0.6202 -0.5675  2.6995
 8244SOL    HW231732   3.817   0.464   2.395 -0.4995 -0.8567 -1.0715
 8245SOL     OW31733   4.154   6.045   1.089 -0.5382 -0.4294  0.8235
 8245SOL    HW131734   4.208   5.976   1.136 -0.9078 -1.0068  0.4040
 8245SOL    HW231735   4.087   6.001   1.030  0.2548  0.2847 -0.6333
 8246SOL     OW31736   4.556   5.552   6.406  0.3694  0.0828  0.1974
 8246SOL    HW131737   4.622   5.497   6.355  0.4251 -0.5820  0.9886
 8246SOL    HW231738   4.575   5.546   6.504 -0.1734  0.7922  0.3561
 8247SOL     OW31739   0.347   4.194   4.953 -0.4509  0.0786  0.0530
 8247SOL    HW131740   0.356   4.161   4.859  0.8385  1.0176 -0.1709
 8247SOL    HW231741   0.260   4.163   4.991 -0.3588 -1.4851 -0.9750
 8248SOL     OW31742   5.314   1.346   4.373  0.0333 -0.4655  0.4953
 8248SOL    HW131743   5.372   1.285   4.428 -0.0432 -0.9191  0.0740
 8248SOL    HW231744   5.369   1.421   4.338  0.1467 -0.3325  0.9545
 8249SOL     OW31745   1.600   0.474   6.935  0.0018  0.4381 -0.2153
 8249SOL    HW131746   1.530   0.477   7.006 -0.8424  0.2219 -1.0340
 8249SOL    HW231747   1.685   0.514   6.970 -0.5569  0.8015  0.7383
 8250SOL     OW31748   2.646   0.788   3.087  0.4718  0.0789  0.6270
 8250SOL    HW131749   2.591   0.752   3.161  1.4929 -1.8564  0.4649
 8250SOL    HW231750   2.593   0.789   3.002  0.3604 -0.8076  0.6869
 8251SOL     OW31751   0.182   1.245   2.216  0.3635 -0.2977 -0.6039
 8251SOL    HW131752   0.129   1.258   2.299  0.6889  2.1329 -0.7640
 8251SOL    HW231753   0.126   1.198   2.148 -0.3526 -1.0598  0.4932
 8252SOL     OW31754   3.665   0.464   6.926 -0.4838  0.0182  0.2697
 8252SOL    HW131755   3.626   0.374   6.943  0.5514 -0.9004 -1.9853
 8252SOL    HW231756   3.704   0.500   7.011 -1.0359 -1.5963  1.2273
 8253SOL     OW31757   5.948   3.509   5.049  0.1164 -0.2411  0.3099
 8253SOL    HW131758   5.994   3.453   4.979  0.1321 -0.2810  0.3523
 8253SOL    HW231759   5.856   3.532   5.017  0.1285 -0.2469  0.2684
 8254SOL     OW31760   3.569   2.014   2.781  0.7035  0.1062  0.3594
 8254SOL    HW131761   3.508   2.088   2.809  1.5780  1.1766 -0.5020
 8254SOL    HW231762   3.662   2.033   2.813  0.9766 -0.4984 -0.0588
 8255SOL     OW31763   5.376   5.462   4.746  0.4563 -1.1034 -0.0336
 8255SOL    HW131764   5.340   5.369   4.750 -0.2665 -0.8004  0.8350
 8255SOL    HW231765   5.301   5.526   4.732  0.6407 -0.4640  1.7368
 8256SOL     OW31766   1.568   3.110   5.277 -0.4522  0.1311 -0.2107
 8256SOL    HW131767   1.481   3.062   5.265  0.2224 -1.8601  2.3326
 8256SOL    HW231768   1.556   3.185   5.341 -0.1007 -0.8501  1.0338
 8257SOL     OW31769   5.766   7.334   5.762  0.0618  0.4693 -0.2538
 8257SOL    HW131770   5.722   7.393   5.695 -1.7522 -2.2215 -1.5338
 8257SOL    HW231771   5.865   7.337   5.749 -0.1033  2.1477 -1.1898
 8258SOL     OW31772   0.797   5.047   0.191  0.4710  0.0493  0.3088
 8258SOL    HW131773   0.782   5.120   0.124 -2.2711 -1.5476 -0.8743
 8258SOL    HW231774   0.810   4.960   0.144  2.8013 -0.4350  1.7497
 8259SOL     OW31775   5.791   4.341   3.581 -0.3177  0.2471 -0.3955
 8259SOL    HW131776   5.857   4.332   3.656 -2.9839 -0.6709  1.9484
 8259SOL    HW231777   5.768   4.438   3.569 -0.0676  0.3845  0.1943
 8260SOL     OW31778   2.224   5.267   3.579 -0.0478 -0.3568  0.0754
 8260SOL    HW131779   2.314   5.228   3.598  0.1813  0.4885  0.7730
 8260SOL    HW231780   2.234   5.363   3.550 -0.6070 -0.7635 -1.5099
 8261SOL     OW31781   4.251   0.478   3.552 -0.1873 -0.3315 -0.5265
 8261SOL    HW131782   4.334   0.499   3.501  1.0551 -1.5851  0.9204
 8261SOL    HW231783   4.186   0.430   3.493  2.2611 -4.0994 -0.2869
 8262SOL     OW31784   6.636   3.165   5.674 -0.2754  0.1386  0.3049
 8262SOL    HW131785   6.716   3.117   5.638 -1.3590 -1.6648  0.2473
 8262SOL    HW231786   6.664   3.252   5.715  1.6341 -0.2509 -0.1556
 8263SOL     OW31787   2.481   2.833   0.757 -0.4441  0.0722 -0.6399
 8263SOL    HW131788   2.519   2.784   0.678 -0.0002  1.3012 -1.2067
 8263SOL    HW231789   2.385   2.808   0.769 -0.2469 -0.8454 -0.9926
 8264SOL     OW31790   4.785   7.247   1.020  1.0430  0.4556 -0.2206
 8264SOL    HW131791   4.839   7.289   1.093 -0.6044  1.5642  0.4183
 8264SOL    HW231792   4.834   7.252   0.934  2.7809 -0.3524  0.6873
 8265SOL     OW31793   1.571   3.171   6.353  0.3803  0.3524 -0.3723
 8265SOL    HW131794   1.578   3.083   6.306 -0.8518 -2.1044  3.8078
 8265SOL    HW231795   1.655   3.188   6.405 -0.3915  0.3782  0.8832
 8266SOL     OW31796   5.834   4.566   4.449 -0.0558 -0.1936  0.9188
 8266SOL    HW131797   5.922   4.590   4.409 -1.9851  2.6321 -1.8428
 8266SOL    HW231798   5.836   4.472   4.481  4.6805  0.5096  3.0797
 8267SOL     OW31799   1.436   3.759   0.134 -0.3562  0.1378  0.1443
 8267SOL    HW131800   1.346   3.769   0.176 -0.2642 -0.1883  0.4147
 8267SOL    HW231801   1.473   3.669   0.154 -0.6499 -0.3188 -1.2883
 8268SOL     OW31802   2.898   5.468   0.262 -0.4069 -0.1967  0.1169
 8268SOL    HW131803   2.959   5.405   0.310 -0.4426  0.4142  0.9858
 8268SOL    HW231804   2.939   5.496   0.176  0.2271 -0.3453  0.3712
 8269SOL     OW31805   1.581   7.184   0.211  0.2552  0.2535  0.3119
 8269SOL    HW131806   1.560   7.259   0.275 -0.7686 -0.4590  0.8206
 8269SOL    HW231807   1.601   7.101   0.263  1.3792  0.1513 -0.2573
 8270SOL     OW31808   6.250   6.863   6.677  0.3506  0.3978  0.4746
 8270SOL    HW131809   6.338   6.824   6.705  0.1315 -0.7034 -0.3250
 8270SOL    HW231810   6.251   6.880   6.578 -0.0929  1.0163  0.5755
 8271SOL     OW31811   1.727   2.617   2.996  0.2950  0.1889 -1.0026
 8271SOL    HW131812   1.730   2.526   2.956 -1.8335  0.2069 -1.3046
 8271SOL    HW231813   1.652   2.621   3.063  1.9106  1.0137  0.8096
 8272SOL     OW31814   5.784   1.619   4.377 -0.0058  0.2041 -0.5494
 8272SOL    HW131815   5.767   1.523   4.352  2.3176 -0.5506  0.6020
 8272SOL    HW231816   5.710   1.676   4.341 -0.2773 -1.7071 -3.2178
 8273SOL     OW31817   6.845   7.115   0.045 -0.0520 -0.6954  0.3402
 8273SOL    HW131818   6.918   7.179   0.022  1.1196 -1.9958  0.3680
 8273SOL    HW231819   6.786   7.155   0.114  1.8491 -0.4370  1.8383
 8274SOL     OW31820   4.713   7.037   0.470 -0.5290 -0.2700  0.1727
 8274SOL    HW131821   4.748   7.110   0.412  0.4036 -0.6315  0.2728
 8274SOL    HW231822   4.787   7.001   0.527 -1.5334  0.4372  1.9684
 8275SOL     OW31823   0.692   3.358   4.163 -0.0819 -0.0950 -0.5249
 8275SOL    HW131824   0.755   3.310   4.102 -0.6017 -1.8677  0.3014
 8275SOL    HW231825   0.606   3.376   4.114  0.6769  1.4273 -1.3309
 8276SOL     OW31826   1.134   5.010   1.847  0.3393 -0.3808 -0.3174
 8276SOL    HW131827   1.145   5.106   1.872  3.0722 -1.0364  1.2054
 8276SOL    HW231828   1.067   4.967   1.909  0.4382  0.1351  0.1536
 8277SOL     OW31829   0.482   3.459   6.710  0.2518  0.1996  0.3787
 8277SOL    HW131830   0.473   3.360   6.711  0.2203  0.2053  0.8700
 8277SOL    HW231831   0.550   3.488   6.777 -0.3260  0.5634  0.8114
 8278SOL     OW31832   4.086   1.675   1.985  0.1505 -0.3366  0.8125
 8278SOL    HW131833   3.987   1.667   1.978  0.3006 -1.0590 -0.7080
 8278SOL    HW231834   4.123   1.594   2.030  0.2055 -0.8826 -0.2060
 8279SOL     OW31835   1.065   6.614   6.336 -0.1444 -0.4954 -0.0984
 8279SOL    HW131836   1.050   6.592   6.239 -0.1430 -0.2107 -0.1621
 8279SOL    HW231837   1.142   6.560   6.370  0.2183 -0.1774 -0.4057
 8280SOL     OW31838   3.304   2.631   5.332  0.0389 -0.2511 -0.1295
 8280SOL    HW131839   3.364   2.603   5.258  0.1372  1.4819 -0.7327
 8280SOL    HW231840   3.225   2.680   5.294  0.2908  1.0026  0.9238
 8281SOL     OW31841   2.062   4.246   5.855  0.4393  0.0549  0.0632
 8281SOL    HW131842   1.975   4.289   5.880  0.6496 -0.0644  1.0271
 8281SOL    HW231843   2.111   4.219   5.938  0.5939 -1.4809 -0.5071
 8282SOL     OW31844   5.335   6.437   2.610  0.2730 -0.2187  0.6109
 8282SOL    HW131845   5.295   6.503   2.546 -0.0055  0.4842  1.5038
 8282SOL    HW231846   5.292   6.348   2.597 -0.1455  0.0433  0.1663
 8283SOL     OW31847   3.558   2.659   7.037  0.5159 -0.3153  0.0132
 8283SOL    HW131848   3.555   2.709   6.950  1.9751 -0.4171 -0.1105
 8283SOL    HW231849   3.594   2.567   7.021  1.0336 -0.2433  0.7641
 8284SOL     OW31850   3.517   0.989   6.432  0.2377 -0.6626 -0.1788
 8284SOL    HW131851   3.605   1.016   6.394 -0.1399 -0.0696 -0.6466
 8284SOL    HW231852   3.526   0.901   6.478  0.7536 -1.3135 -1.5001
 8285SOL     OW31853   5.767   0.557   6.795  0.0068 -0.3579  0.7415
 8285SOL    HW131854   5.823   0.627   6.751 -0.4030 -0.9062 -0.6537
 8285SOL    HW231855   5.696   0.601   6.851 -0.3372  0.3412 -0.2450
 8286SOL     OW31856   5.785   3.281   1.776  0.0973  0.1485  0.2176
 8286SOL    HW131857   5.802   3.223   1.697 -0.6822 -0.8922  0.8043
 8286SOL    HW231858   5.859   3.270   1.843  0.7605  1.0360 -0.3565
 8287SOL     OW31859   1.619   4.350   1.243 -0.3604 -0.5179 -0.2514
 8287SOL    HW131860   1.563   4.267   1.249 -1.9751  0.6008  0.5586
 8287SOL    HW231861   1.568   4.427   1.281  0.8807  0.9803 -1.5627
 8288SOL     OW31862   2.153   5.063   1.749 -0.1578  0.0932 -0.0616
 8288SOL    HW131863   2.220   5.138   1.757 -0.9725  1.0857 -2.1180
 8288SOL    HW231864   2.154   5.009   1.832  0.9236  2.0151  1.2198
 8289SOL     OW31865   6.512   5.044   4.239 -0.1486 -0.1441 -0.6060
 8289SOL    HW131866   6.511   5.023   4.141  0.0436 -1.6180 -0.3043
 8289SOL    HW231867   6.606   5.051   4.271 -0.2091  0.2041 -0.5083
 8290SOL     OW31868   0.177   5.736   6.695 -0.0390  0.0896 -0.2064
 8290SOL    HW131869   0.240   5.714   6.620 -0.0516  0.4844 -0.3382
 8290SOL    HW231870   0.161   5.835   6.696 -1.0249 -0.0677 -0.4602
 8291SOL     OW31871   5.204   2.233   2.601 -0.2143  0.6380  0.3423
 8291SOL    HW131872   5.174   2.144   2.567 -0.4516  0.7116  0.3563
 8291SOL    HW231873   5.126   2.295   2.602 -0.1176  0.7504  0.6408
 8292SOL     OW31874   3.868   5.902   4.882  0.0461 -0.3433  0.9831
 8292SOL    HW131875   3.883   5.920   4.785 -0.7868  1.3807  1.1468
 8292SOL    HW231876   3.955   5.903   4.931  0.4161 -0.7014  0.3273
 8293SOL     OW31877   7.341   5.288   5.656  0.1580  0.5176 -0.4108
 8293SOL    HW131878   7.407   5.235   5.602 -1.3103 -0.3458 -1.4062
 8293SOL    HW231879   7.363   5.279   5.753  1.2325 -0.1307 -0.7016
 8294SOL     OW31880   4.602   5.357   3.816 -0.4317 -0.1362  0.4792
 8294SOL    HW131881   4.702   5.361   3.813 -0.3955 -0.3917  1.3028
 8294SOL    HW231882   4.569   5.395   3.903 -1.0524 -0.0342  0.2042
 8295SOL     OW31883   2.435   5.157   1.231 -0.3161  0.1677  0.3477
 8295SOL    HW131884   2.491   5.079   1.262 -1.8577 -0.7734  0.8365
 8295SOL    HW231885   2.376   5.128   1.156 -0.6031  0.9799  0.2588
 8296SOL     OW31886   2.886   3.199   6.899 -0.0107  0.0368 -0.2276
 8296SOL    HW131887   2.930   3.288   6.893  0.6566 -0.2740  0.0221
 8296SOL    HW231888   2.873   3.161   6.807  0.6533 -0.0660 -0.2839
 8297SOL     OW31889   5.658   5.050   0.329  0.4759  0.0540 -0.3578
 8297SOL    HW131890   5.644   5.079   0.235  1.3770 -0.2669 -0.5917
 8297SOL    HW231891   5.569   5.032   0.372 -0.1435  3.3847 -0.1058
 8298SOL     OW31892   2.972   0.415   1.982 -0.6682 -0.0437 -0.3105
 8298SOL    HW131893   2.936   0.467   1.905  2.9644 -0.1609 -2.2125
 8298SOL    HW231894   2.972   0.472   2.064 -1.3165  1.2958 -1.2341
 8299SOL     OW31895   1.157   6.156   7.341  0.6607  0.6347  0.1780
 8299SOL    HW131896   1.070   6.108   7.351  0.7720  0.2543 -0.6331
 8299SOL    HW231897   1.214   6.140   7.421  0.2974  0.2375  0.3566
 8300SOL     OW31898   2.340   4.231   3.436  0.0453 -0.1586 -0.3904
 8300SOL    HW131899   2.438   4.234   3.418 -0.0618 -0.1357 -0.9805
 8300SOL    HW231900   2.322   4.263   3.529  0.5363  0.4343 -0.4975
 8301SOL     OW31901   2.349   6.276   0.872  0.2613 -0.1318 -0.6720
 8301SOL    HW131902   2.431   6.229   0.906  1.5457  1.9313 -0.8016
 8301SOL    HW231903   2.325   6.350   0.934 -1.1885 -0.3815 -0.9267
 8302SOL     OW31904   6.720   1.829   1.185 -0.1956 -0.6645  0.0166
 8302SOL    HW131905   6.622   1.843   1.169  0.0949  0.6478 -0.6506
 8302SOL    HW231906   6.749   1.885   1.263  0.5348  0.9126 -1.3581
 8303SOL     OW31907   0.083   2.560   4.816 -0.4120  0.5419 -0.1439
 8303SOL    HW131908   0.101   2.511   4.902  1.8911  2.3089  0.4356
 8303SOL    HW231909   0.025   2.639   4.835 -0.3729  0.6040 -0.2853
 8304SOL     OW31910   2.696   3.220   4.817 -0.3137  0.1515 -0.5029
 8304SOL    HW131911   2.704   3.161   4.898 -0.3480  0.7769 -0.0351
 8304SOL    HW231912   2.614   3.276   4.825  1.2355  2.3437  0.4606
 8305SOL     OW31913   2.567   0.766   1.708 -0.3419  0.0968 -0.1119
 8305SOL    HW131914   2.523   0.855   1.690 -2.8904 -1.4282 -1.7524
 8305SOL    HW231915   2.522   0.722   1.785  0.3110 -0.1753  0.1145
 8306SOL     OW31916   1.887   5.688   5.668 -0.2829 -0.2794 -0.1208
 8306SOL    HW131917   1.870   5.742   5.750  0.0179  0.8375 -0.7813
 8306SOL    HW231918   1.852   5.596   5.681 -1.9572  0.4294  0.5412
 8307SOL     OW31919   3.184   5.903   2.507 -0.2804  0.4974  0.0942
 8307SOL    HW131920   3.187   5.940   2.414  0.1391 -0.3748 -0.2359
 8307SOL    HW231921   3.125   5.823   2.509  1.0917 -0.5242  0.2137
 8308SOL     OW31922   2.697   7.133   4.664  0.2299  0.8744 -0.0053
 8308SOL    HW131923   2.598   7.134   4.649  0.1965  1.1685  0.2374
 8308SOL    HW231924   2.717   7.095   4.755  0.3968 -0.2290 -0.4846
 8309SOL     OW31925   6.366   0.792   6.900  0.0522  0.2177 -0.5142
 8309SOL    HW131926   6.373   0.877   6.848  0.4890  0.3453 -0.2504
 8309SOL    HW231927   6.454   0.771   6.942 -0.7957  1.3023  1.9833
 8310SOL     OW31928   4.207   6.786   4.305 -0.5779  0.2263 -0.0116
 8310SOL    HW131929   4.133   6.791   4.238 -0.9642 -0.1583  0.3778
 8310SOL    HW231930   4.242   6.693   4.309 -0.7403  0.1834  0.5092
 8311SOL     OW31931   4.747   6.423   6.553  0.1896 -0.1858 -0.2047
 8311SOL    HW131932   4.662   6.476   6.558 -0.7726 -1.4956 -1.9384
 8311SOL    HW231933   4.801   6.455   6.476 -0.8170 -2.2377 -1.8310
 8312SOL     OW31934   0.727   6.842   4.685  0.0594 -0.0544  0.0056
 8312SOL    HW131935   0.692   6.749   4.688  0.7789 -0.3171  0.7164
 8312SOL    HW231936   0.744   6.869   4.590  0.7239 -0.9933 -0.1536
 8313SOL     OW31937   5.467   5.462   2.361  0.3093  0.5233  0.0673
 8313SOL    HW131938   5.444   5.443   2.266  0.4966 -0.0140  0.1268
 8313SOL    HW231939   5.391   5.509   2.405  1.2287  3.0959 -1.0313
 8314SOL     OW31940   6.555   2.260   1.549 -0.4171 -0.0989  0.1029
 8314SOL    HW131941   6.485   2.198   1.586 -0.5267  0.0968  0.2252
 8314SOL    HW231942   6.576   2.233   1.455 -0.0436 -0.6788  0.3494
 8315SOL     OW31943   6.812   3.064   4.975 -0.7541  0.3362 -0.0135
 8315SOL    HW131944   6.801   3.112   4.888 -0.4364  0.1049 -0.1827
 8315SOL    HW231945   6.909   3.056   4.997 -0.7309 -1.3357 -0.6143
 8316SOL     OW31946   6.887   6.731   0.881 -0.1273  0.1551  0.0130
 8316SOL    HW131947   6.842   6.651   0.843  0.9971 -0.3604 -0.2458
 8316SOL    HW231948   6.960   6.703   0.943 -1.9843  0.9793  2.6667
 8317SOL     OW31949   1.130   0.661   1.753 -0.2288  0.4380 -0.1964
 8317SOL    HW131950   1.207   0.619   1.800  0.6157  1.7952 -0.3532
 8317SOL    HW231951   1.089   0.732   1.810 -0.8911  0.2415 -0.4164
 8318SOL     OW31952   0.386   3.750   0.505  0.4124 -0.1004  0.6879
 8318SOL    HW131953   0.427   3.810   0.573 -0.9173  1.4297  0.1543
 8318SOL    HW231954   0.337   3.676   0.551  0.5506  0.2405  1.3828
 8319SOL     OW31955   4.530   5.221   2.694 -0.6943  0.7472 -0.0744
 8319SOL    HW131956   4.555   5.295   2.632 -0.2389  0.7503  0.1139
 8319SOL    HW231957   4.441   5.241   2.735 -0.2781  1.5089  0.4686
 8320SOL     OW31958   5.097   2.291   3.037 -0.4522  0.1553  0.2233
 8320SOL    HW131959   5.058   2.336   3.117 -2.8660 -0.2535 -0.7073
 8320SOL    HW231960   5.076   2.193   3.039  1.9065 -0.3871  0.5123
 8321SOL     OW31961   5.823   4.085   0.134  0.0574 -0.3863  0.1257
 8321SOL    HW131962   5.890   4.159   0.136  1.5141 -1.6717 -0.8343
 8321SOL    HW231963   5.823   4.042   0.043 -0.1125 -2.1924  0.9701
 8322SOL     OW31964   4.284   7.179   4.690 -0.2720 -0.3156  0.0327
 8322SOL    HW131965   4.355   7.250   4.691 -2.5752  2.1381 -2.4216
 8322SOL    HW231966   4.228   7.189   4.608 -1.5501 -4.1741  0.3391
 8323SOL     OW31967   6.075   5.730   3.399  0.2446  0.4182  0.2111
 8323SOL    HW131968   6.145   5.672   3.358  2.1429  1.7895  1.4312
 8323SOL    HW231969   6.022   5.774   3.327  1.6306  0.5099 -0.7795
 8324SOL     OW31970   7.251   4.608   5.237  0.3782 -0.1380 -0.9026
 8324SOL    HW131971   7.174   4.545   5.244 -0.5025  0.8852 -1.2151
 8324SOL    HW231972   7.293   4.600   5.146  1.5138 -1.6655 -0.2715
 8325SOL     OW31973   3.782   4.895   5.535 -0.2351 -0.6057  0.2890
 8325SOL    HW131974   3.836   4.838   5.597 -2.7312 -0.4987  2.6738
 8325SOL    HW231975   3.734   4.965   5.588 -0.4861  1.1012 -2.1036
 8326SOL     OW31976   4.029   5.501   5.130 -0.1722 -0.5777 -0.0832
 8326SOL    HW131977   3.995   5.509   5.037  2.4553 -1.8061 -1.1921
 8326SOL    HW231978   4.080   5.416   5.140  2.1620  0.9504  1.6146
 8327SOL     OW31979   1.029   2.324   5.457 -0.1807 -0.1455 -0.6357
 8327SOL    HW131980   1.108   2.321   5.519 -1.5466  3.5040  1.3802
 8327SOL    HW231981   1.051   2.381   5.378 -0.3734 -0.1588 -0.6979
 8328SOL     OW31982   0.202   3.942   3.136  0.1882 -0.5445  0.1397
 8328SOL    HW131983   0.138   3.942   3.213 -0.6887 -2.1262 -0.5496
 8328SOL    HW231984   0.220   3.847   3.108  1.9514 -0.0694 -0.4092
 8329SOL     OW31985   1.116   4.278   2.610  0.2734 -0.1552 -0.4777
 8329SOL    HW131986   1.131   4.261   2.513  0.2801  0.1684 -0.5341
 8329SOL    HW231987   1.124   4.376   2.629  1.5111 -0.3490  0.0595
 8330SOL     OW31988   3.072   4.686   7.033 -0.0298  0.1664 -0.5913
 8330SOL    HW131989   3.094   4.772   7.079  0.7399  0.0349 -0.7122
 8330SOL    HW231990   3.133   4.673   6.955  0.7182 -1.1077  0.1901
 8331SOL     OW31991   3.028   3.446   1.169  0.5225 -0.2915  0.8698
 8331SOL    HW131992   2.942   3.401   1.191  0.8485  0.3002  3.4801
 8331SOL    HW231993   3.012   3.516   1.099 -1.0088 -0.5741  0.9225
 8332SOL     OW31994   0.369   0.843   5.284  0.2405 -0.1855  0.5910
 8332SOL    HW131995   0.362   0.943   5.286  0.9488 -0.1140 -0.3983
 8332SOL    HW231996   0.465   0.816   5.290  0.2252 -0.7412 -1.3347
 8333SOL     OW31997   6.040   3.797   3.368 -0.1274  0.5148 -0.3110
 8333SOL    HW131998   5.943   3.782   3.355  0.1053 -0.3358 -1.0842
 8333SOL    HW231999   6.077   3.727   3.429 -0.0930  1.1201  0.3670
 8334SOL     OW32000   5.679   3.226   6.130  0.0259 -0.1517 -0.3526
 8334SOL    HW132001   5.688   3.319   6.097 -0.5444 -0.4143 -1.2576
 8334SOL    HW232002   5.654   3.165   6.055 -1.4305 -0.7214  0.5594
 8335SOL     OW32003   4.979   4.280   4.480 -0.1458  0.3311 -0.1381
 8335SOL    HW132004   5.051   4.339   4.444 -0.2770  0.5482 -0.0463
 8335SOL    HW232005   5.018   4.191   4.502 -0.4820 -0.5143 -2.7912
 8336SOL     OW32006   1.870   3.852   0.192  0.2300  0.1229  0.4920
 8336SOL    HW132007   1.856   3.948   0.217 -1.0678  0.4320 -1.3619
 8336SOL    HW232008   1.907   3.803   0.271 -1.4024  1.5984  2.2329
 8337SOL     OW32009   0.889   2.215   5.890 -0.6287  0.5249 -0.3277
 8337SOL    HW132010   0.902   2.257   5.980 -0.0001  3.1069 -1.5479
 8337SOL    HW232011   0.978   2.206   5.845 -0.9735 -0.4119 -0.8294
 8338SOL     OW32012   4.630   4.353   1.899  0.0317 -0.1486 -0.1341
 8338SOL    HW132013   4.655   4.447   1.875 -1.3344 -0.1636 -1.6852
 8338SOL    HW232014   4.603   4.350   1.995  0.0272  1.0589 -0.0857
 8339SOL     OW32015   1.650   2.846   1.372 -0.7470 -0.0849 -0.0809
 8339SOL    HW132016   1.650   2.797   1.285  0.7299  0.3073 -0.3229
 8339SOL    HW232017   1.590   2.926   1.365 -0.2198  0.2504 -0.9407
 8340SOL     OW32018   4.139   0.451   7.252  0.2102  0.0584 -0.2642
 8340SOL    HW132019   4.132   0.436   7.351  1.7130  0.3243 -0.1029
 8340SOL    HW232020   4.155   0.364   7.206 -1.5809 -0.2174 -0.3969
 8341SOL     OW32021   2.114   2.829   7.310  0.3775  0.0794  0.0547
 8341SOL    HW132022   2.028   2.853   7.264 -0.7368 -0.9012  1.5717
 8341SOL    HW232023   2.156   2.753   7.263  0.2547  0.3617 -0.5170
 8342SOL     OW32024   6.655   7.166   7.023  0.4848  0.5260  0.1648
 8342SOL    HW132025   6.731   7.140   7.082  1.1302 -0.5936 -1.1115
 8342SOL    HW232026   6.680   7.150   6.927 -1.6897 -0.8339 -0.2276
 8343SOL     OW32027   4.788   5.971   5.995 -0.1750  0.4473 -0.1333
 8343SOL    HW132028   4.831   5.924   5.918  0.7385 -0.5350  0.9549
 8343SOL    HW232029   4.784   6.069   5.977  0.8421  0.3258 -1.0382
 8344SOL     OW32030   1.204   4.078   4.213 -0.2505 -0.2740 -0.6345
 8344SOL    HW132031   1.241   4.067   4.305 -1.8060 -2.1425 -0.2037
 8344SOL    HW232032   1.149   4.162   4.209  0.7367  0.3990 -0.1897
 8345SOL     OW32033   0.374   5.906   1.591  0.1582 -0.5355 -0.2656
 8345SOL    HW132034   0.329   5.892   1.503 -0.9263 -0.3097  0.2474
 8345SOL    HW232035   0.371   6.003   1.615  2.1468 -0.2957 -0.8665
 8346SOL     OW32036   4.544   1.528   3.290  0.3403 -0.2606 -0.3480
 8346SOL    HW132037   4.585   1.561   3.205  1.9609 -0.6785  0.2655
 8346SOL    HW232038   4.585   1.440   3.316 -0.6954 -0.5234  0.4646
 8347SOL     OW32039   2.538   2.744   7.194 -0.0104 -0.1459 -0.0487
 8347SOL    HW132040   2.603   2.810   7.158 -0.3276 -0.0017 -0.3568
 8347SOL    HW232041   2.445   2.776   7.176 -0.1900  0.5931  2.0436
 8348SOL     OW32042   2.727   1.896   3.892 -0.5744 -0.4166 -0.1039
 8348SOL    HW132043   2.727   1.947   3.979  2.0162 -0.6404  0.0779
 8348SOL    HW232044   2.821   1.868   3.871 -1.3730 -1.4399 -2.3675
 8349SOL     OW32045   3.613   5.597   4.957  0.1760  0.2418  0.4269
 8349SOL    HW132046   3.599   5.684   4.909 -0.2763 -0.3921 -0.6044
 8349SOL    HW232047   3.575   5.605   5.050 -0.7250  0.8440  0.0249
 8350SOL     OW32048   0.126   4.027   6.412  0.2296 -0.4521  0.3678
 8350SOL    HW132049   0.140   3.928   6.415 -0.7661 -0.5863  0.8915
 8350SOL    HW232050   0.028   4.047   6.412  0.4112  0.5791  2.1765
 8351SOL     OW32051   5.633   3.666   6.839  0.4322  0.2001 -0.3080
 8351SOL    HW132052   5.712   3.705   6.792 -0.7817  2.1063 -0.8298
 8351SOL    HW232053   5.551   3.679   6.782 -0.6719  0.5361  1.3297
 8352SOL     OW32054   0.337   1.154   1.183 -0.0120 -0.2502 -0.1971
 8352SOL    HW132055   0.334   1.115   1.090  2.1535 -1.1105  0.0424
 8352SOL    HW232056   0.244   1.168   1.217 -0.8412  0.4523 -2.6493
 8353SOL     OW32057   0.224   1.848   3.195  0.5263 -0.6859 -0.1176
 8353SOL    HW132058   0.155   1.869   3.264  2.6739 -0.3156  1.9737
 8353SOL    HW232059   0.249   1.752   3.200  1.1494 -0.5167  0.0503
 8354SOL     OW32060   2.577   0.056   4.853  0.5058 -0.1871  0.1416
 8354SOL    HW132061   2.669   0.069   4.890  0.2231  0.7366  0.5323
 8354SOL    HW232062   2.511   0.107   4.908 -0.1939 -0.5353 -0.3620
 8355SOL     OW32063   5.573   6.383   5.918 -0.0220  0.1863  0.2413
 8355SOL    HW132064   5.620   6.391   5.830  1.2977 -2.0656  0.6969
 8355SOL    HW232065   5.517   6.300   5.919 -1.4539  1.1444  0.8934
 8356SOL     OW32066   0.982   5.512   4.991  0.4479  0.7265  0.5039
 8356SOL    HW132067   0.951   5.592   4.939  0.8128  0.6281  0.1310
 8356SOL    HW232068   0.976   5.431   4.933 -0.9151  0.3029  1.2107
 8357SOL     OW32069   5.640   0.534   0.451  0.1290 -0.1424 -0.1737
 8357SOL    HW132070   5.658   0.589   0.533  1.7020  0.3529 -0.8350
 8357SOL    HW232071   5.724   0.486   0.425 -0.9347 -1.9626 -0.2757
 8358SOL     OW32072   2.534   5.175   5.663  0.1930  0.1601  0.0782
 8358SOL    HW132073   2.517   5.148   5.758  0.5660 -0.8788 -0.1448
 8358SOL    HW232074   2.461   5.140   5.605  0.3706  0.1363 -0.1291
 8359SOL     OW32075   4.437   0.834   5.786  0.3564 -0.4330 -0.0195
 8359SOL    HW132076   4.443   0.927   5.749 -1.4631 -0.9832 -1.7484
 8359SOL    HW232077   4.529   0.801   5.806  1.2351  0.6855 -2.0526
 8360SOL     OW32078   4.945   0.827   5.415 -0.2276  0.1695  0.2499
 8360SOL    HW132079   4.972   0.796   5.506  1.0833 -1.0504 -0.5435
 8360SOL    HW232080   5.026   0.838   5.358 -1.2531 -2.2490 -1.7611
 8361SOL     OW32081   1.179   7.053   0.739  0.5064  0.3971  0.5459
 8361SOL    HW132082   1.221   7.095   0.819  3.0436  0.5629 -0.8148
 8361SOL    HW232083   1.249   7.038   0.669 -1.8634  1.4841 -2.1498
 8362SOL     OW32084   6.264   2.365   3.268  0.4618  0.3313 -0.3220
 8362SOL    HW132085   6.358   2.393   3.252 -0.0504  2.2293 -0.0816
 8362SOL    HW232086   6.213   2.440   3.310 -1.0473 -0.8224 -0.0532
 8363SOL     OW32087   5.456   0.716   5.963  0.1127  0.6032  0.5223
 8363SOL    HW132088   5.504   0.632   5.940  0.1913  0.5557  0.8511
 8363SOL    HW232089   5.492   0.792   5.909  0.4990  0.5525  0.7109
 8364SOL     OW32090   4.715   6.075   5.277 -0.0073  0.3843 -0.5354
 8364SOL    HW132091   4.711   6.044   5.372 -0.0431  0.4172 -0.5264
 8364SOL    HW232092   4.669   6.163   5.269  1.4040  1.1508 -0.2756
 8365SOL     OW32093   3.634   3.891   0.396  0.4661  0.1667  0.0619
 8365SOL    HW132094   3.611   3.840   0.479  0.2618 -1.1951 -0.8100
 8365SOL    HW232095   3.678   3.829   0.330  2.5085  1.7059 -0.0575
 8366SOL     OW32096   3.437   5.455   5.302  0.1817 -0.4844 -0.1394
 8366SOL    HW132097   3.506   5.508   5.251 -0.6261 -1.2169 -2.0526
 8366SOL    HW232098   3.374   5.518   5.347  1.0970  0.1888  0.2159
 8367SOL     OW32099   7.056   3.765   3.689  0.4986 -0.4956 -0.0236
 8367SOL    HW132100   7.134   3.778   3.628  0.7105 -0.8532  0.1660
 8367SOL    HW232101   7.022   3.671   3.680  1.3355 -0.9553  1.3260
 8368SOL     OW32102   4.182   2.355   3.973  0.1006  0.0754 -0.2620
 8368SOL    HW132103   4.162   2.299   4.053 -1.7331 -0.0449 -0.7893
 8368SOL    HW232104   4.240   2.432   4.001  0.0955 -0.3682  1.0345
 8369SOL     OW32105   4.229   1.141   6.923 -0.8235 -0.1230 -0.2834
 8369SOL    HW132106   4.174   1.121   7.004 -1.4180  1.2123 -0.3532
 8369SOL    HW232107   4.183   1.210   6.867 -0.5559 -1.2397 -1.9154
 8370SOL     OW32108   1.636   1.839   7.071 -0.0880  0.1997  0.1294
 8370SOL    HW132109   1.716   1.817   7.015  0.1817  1.4864  0.0045
 8370SOL    HW232110   1.662   1.839   7.168  0.1661  1.0148  0.0659
 8371SOL     OW32111   0.596   4.227   2.101  0.2929 -0.5780  0.5873
 8371SOL    HW132112   0.692   4.201   2.116  0.2995 -0.6575  0.4009
 8371SOL    HW232113   0.542   4.145   2.080  0.4749 -0.3314 -0.8562
 8372SOL     OW32114   3.390   0.278   7.332 -0.2121  0.3396  0.1864
 8372SOL    HW132115   3.444   0.294   7.415 -0.0526  0.5859  0.0348
 8372SOL    HW232116   3.382   0.180   7.316 -2.0910  0.2175  1.7100
 8373SOL     OW32117   2.745   2.269   6.336 -0.3424  0.3146 -0.0844
 8373SOL    HW132118   2.759   2.224   6.247 -0.5584 -0.7788  0.4268
 8373SOL    HW232119   2.703   2.359   6.321  0.1429  0.3784 -1.1238
 8374SOL     OW32120   2.099   3.766   4.906 -0.6183 -0.5717  0.3416
 8374SOL    HW132121   2.113   3.823   4.987  0.7069 -1.5425  0.8175
 8374SOL    HW232122   2.153   3.801   4.830 -0.8989 -0.3841  0.2261
 8375SOL     OW32123   7.218   4.206   5.153 -0.4004  0.2093  0.6392
 8375SOL    HW132124   7.209   4.106   5.147 -1.4429  0.3738 -0.8096
 8375SOL    HW232125   7.311   4.233   5.130 -0.3234 -0.3790  0.2491
 8376SOL     OW32126   4.482   1.202   0.527  0.0674 -0.3830 -0.2057
 8376SOL    HW132127   4.530   1.280   0.486  1.4108 -0.2218  1.5868
 8376SOL    HW232128   4.439   1.231   0.613 -0.7089 -1.2530 -0.2959
 8377SOL     OW32129   1.799   2.955   0.612  0.2430  0.3686 -0.8492
 8377SOL    HW132130   1.823   3.050   0.588  0.9852  0.1922 -0.8300
 8377SOL    HW232131   1.808   2.897   0.531 -1.4512  0.5346 -1.1668
 8378SOL     OW32132   6.864   2.586   1.731 -0.4404  0.2893 -0.4283
 8378SOL    HW132133   6.949   2.624   1.768 -0.0351  1.0645 -2.0858
 8378SOL    HW232134   6.834   2.642   1.654 -1.1629 -1.3717 -1.3764
 8379SOL     OW32135   2.853   4.376   1.125  0.3780  0.4697  0.3594
 8379SOL    HW132136   2.826   4.376   1.029  0.5449 -0.2124  0.3096
 8379SOL    HW232137   2.938   4.428   1.137  0.8451 -0.2001 -0.0057
 8380SOL     OW32138   0.112   0.991   6.445 -0.2193  0.4339  0.1099
 8380SOL    HW132139   0.057   0.932   6.504 -1.3951  1.1748 -0.2055
 8380SOL    HW232140   0.093   0.969   6.350  1.9032 -0.9625  0.0049
 8381SOL     OW32141   5.645   5.235   3.090 -0.1768 -0.1694 -0.5382
 8381SOL    HW132142   5.609   5.149   3.125  0.7366  0.6447  2.4645
 8381SOL    HW232143   5.633   5.238   2.990 -0.6449 -3.5323 -0.6167
 8382SOL     OW32144   3.179   2.875   3.759  0.6010 -0.0173  0.0752
 8382SOL    HW132145   3.135   2.810   3.697  2.8440 -0.5054 -1.0757
 8382SOL    HW232146   3.250   2.827   3.811 -0.5692  0.6201  2.3094
 8383SOL     OW32147   4.572   0.316   3.218  0.1117 -0.1432 -0.2783
 8383SOL    HW132148   4.521   0.337   3.134 -2.2369 -0.0506  1.1265
 8383SOL    HW232149   4.521   0.248   3.271 -0.0481  2.1642  2.6072
 8384SOL     OW32150   5.626   2.778   0.770  0.1569 -0.1226  0.3354
 8384SOL    HW132151   5.663   2.736   0.686 -1.0592  0.3612 -0.4503
 8384SOL    HW232152   5.570   2.857   0.746 -0.0761  0.1147  1.6276
 8385SOL     OW32153   5.169   1.548   4.007  0.0149 -0.6328 -0.1683
 8385SOL    HW132154   5.264   1.521   4.024 -0.3783 -1.8360  0.1696
 8385SOL    HW232155   5.127   1.578   4.092 -0.2999 -1.3635 -0.0633
 8386SOL     OW32156   4.922   4.345   2.757 -0.1842 -0.2321 -0.1564
 8386SOL    HW132157   4.974   4.358   2.841  2.3952  0.2975 -1.7874
 8386SOL    HW232158   4.955   4.264   2.709 -1.3491 -0.2987 -0.8824
 8387SOL     OW32159   1.593   3.511   0.108 -0.0660 -0.1763  0.1679
 8387SOL    HW132160   1.666   3.569   0.070  0.9856  0.0372  2.4404
 8387SOL    HW232161   1.584   3.428   0.053  1.3457  0.1604 -0.5871
 8388SOL     OW32162   7.037   6.019   2.562 -0.3577 -0.1204  0.6153
 8388SOL    HW132163   6.972   5.984   2.495  2.0996 -2.3795 -0.7253
 8388SOL    HW232164   6.994   6.025   2.652 -2.5685 -0.9256 -0.3643
 8389SOL     OW32165   5.054   0.418   6.908  0.1005 -0.7012 -0.4481
 8389SOL    HW132166   5.048   0.321   6.929 -1.1449 -0.4446  0.4162
 8389SOL    HW232167   5.150   0.447   6.913  0.1176 -1.1429  2.8043
 8390SOL     OW32168   6.214   5.164   3.552 -0.4894 -0.2516 -0.3853
 8390SOL    HW132169   6.226   5.161   3.651 -1.1407  2.5886 -0.1611
 8390SOL    HW232170   6.123   5.130   3.528 -1.1108  0.9734  0.2014
 8391SOL     OW32171   6.158   1.741   3.107 -0.0245  0.2769  0.1700
 8391SOL    HW132172   6.173   1.749   3.205  1.5540 -0.0196 -0.0350
 8391SOL    HW232173   6.149   1.645   3.082  1.4921  0.2239 -0.2296
 8392SOL     OW32174   3.958   4.375   6.265 -0.5667  0.5658 -0.0916
 8392SOL    HW132175   3.907   4.401   6.183  0.4928 -0.2421 -1.0190
 8392SOL    HW232176   3.894   4.345   6.336 -1.3368 -1.4939 -1.6089
 8393SOL     OW32177   1.410   1.697   7.126  0.1920 -0.3389 -0.0320
 8393SOL    HW132178   1.485   1.747   7.082 -0.5183 -2.8164 -4.3129
 8393SOL    HW232179   1.430   1.599   7.125 -2.1307 -0.8481  0.8184
 8394SOL     OW32180   6.204   4.693   1.947  0.5118  0.3703 -0.2625
 8394SOL    HW132181   6.189   4.772   1.887 -0.9446 -0.4023 -0.9476
 8394SOL    HW232182   6.138   4.696   2.022  0.2816 -0.3247 -0.4356
 8395SOL     OW32183   2.476   5.189   3.600 -0.2785 -0.3774 -0.0350
 8395SOL    HW132184   2.514   5.179   3.509 -0.8214  1.8374 -0.5470
 8395SOL    HW232185   2.550   5.200   3.667  0.1758 -3.4165  0.0477
 8396SOL     OW32186   1.758   3.652   6.132 -0.1118 -0.2432 -0.1319
 8396SOL    HW132187   1.753   3.700   6.045  1.7729 -2.3756 -1.4708
 8396SOL    HW232188   1.852   3.651   6.165 -0.6093 -0.5037  1.3185
 8397SOL     OW32189   3.175   7.314   5.254  0.8534 -0.1573 -0.5927
 8397SOL    HW132190   3.182   7.239   5.189 -2.9592 -0.2669 -1.0349
 8397SOL    HW232191   3.096   7.298   5.314  1.5478  2.1998  1.0087
 8398SOL     OW32192   6.654   5.646   5.645 -0.5343  0.6940 -0.2882
 8398SOL    HW132193   6.577   5.581   5.649  1.3600 -1.5764  0.8469
 8398SOL    HW232194   6.688   5.652   5.552  0.2898 -1.2526 -0.1475
 8399SOL     OW32195   5.979   6.858   4.355 -0.8130 -0.6824  0.4313
 8399SOL    HW132196   5.882   6.833   4.351 -1.2649  1.2481 -1.1374
 8399SOL    HW232197   5.994   6.922   4.431 -1.0957  0.3374 -0.3605
 8400SOL     OW32198   4.888   4.081   1.976  0.3686 -0.2314  0.1286
 8400SOL    HW132199   4.887   4.015   1.901  1.7287  1.5916 -1.5456
 8400SOL    HW232200   4.964   4.060   2.038  1.4593  0.3547 -0.9828
 8401SOL     OW32201   1.569   1.184   3.536 -0.5090 -0.2708  0.3561
 8401SOL    HW132202   1.502   1.251   3.567  1.0841  1.4056  0.3061
 8401SOL    HW232203   1.534   1.135   3.457 -1.6553  0.5899  0.3200
 8402SOL     OW32204   0.790   2.999   5.430  0.1781  0.4278 -0.3842
 8402SOL    HW132205   0.805   3.039   5.339  0.2228 -1.1422 -1.0974
 8402SOL    HW232206   0.878   2.976   5.471  0.1528  1.0447  0.0130
 8403SOL     OW32207   0.541   4.371   4.650 -0.3109  0.0193 -0.1274
 8403SOL    HW132208   0.478   4.297   4.675  0.8757 -0.5453  1.2158
 8403SOL    HW232209   0.598   4.342   4.574 -0.4508 -0.1147 -0.1821
 8404SOL     OW32210   1.759   5.024   1.095 -0.2239  0.0026  0.3113
 8404SOL    HW132211   1.727   5.108   1.138 -1.7858 -0.1834 -0.4343
 8404SOL    HW232212   1.858   5.016   1.105  0.1819  2.7834 -1.1583
 8405SOL     OW32213   6.432   5.167   1.569  0.0325  0.2906 -0.2529
 8405SOL    HW132214   6.508   5.157   1.504 -0.3128 -0.7907 -0.4929
 8405SOL    HW232215   6.467   5.200   1.656  0.6544  0.6940 -0.6464
 8406SOL     OW32216   5.788   1.836   5.896  0.2658 -0.2649  0.0722
 8406SOL    HW132217   5.774   1.744   5.860  3.2354 -0.3183 -1.0680
 8406SOL    HW232218   5.822   1.830   5.990  0.3090 -0.3216  0.0533
 8407SOL     OW32219   0.519   3.583   5.535 -0.1435  0.6604  0.1172
 8407SOL    HW132220   0.608   3.628   5.533 -0.1786  0.7882  1.2300
 8407SOL    HW232221   0.458   3.631   5.597 -1.9304  2.2533 -2.7527
 8408SOL     OW32222   3.990   1.699   6.858 -0.2015 -0.4136 -1.0238
 8408SOL    HW132223   3.984   1.606   6.822  0.9463 -1.2319  0.8375
 8408SOL    HW232224   3.910   1.718   6.916  0.1751 -0.6935 -0.4053
 8409SOL     OW32225   7.066   0.133   5.435 -0.2317 -0.0136 -0.0464
 8409SOL    HW132226   7.066   0.046   5.483 -0.7319 -0.2802 -0.5307
 8409SOL    HW232227   6.972   0.162   5.418 -0.0836  1.1353  1.0468
 8410SOL     OW32228   4.899   5.933   0.570 -0.1863  0.3032  0.1750
 8410SOL    HW132229   4.931   5.898   0.657  0.0131  0.5230  0.1915
 8410SOL    HW232230   4.931   6.027   0.558  1.3865 -0.3445 -0.9624
 8411SOL     OW32231   1.307   2.266   1.189  0.2363  0.1030 -0.0027
 8411SOL    HW132232   1.338   2.360   1.170 -0.0423  0.7729  2.6557
 8411SOL    HW232233   1.308   2.250   1.287  3.2646 -3.7671 -0.5480
 8412SOL     OW32234   2.168   2.827   1.114  0.1247 -0.4554  0.0703
 8412SOL    HW132235   2.100   2.759   1.139  0.0662 -0.8176 -1.0597
 8412SOL    HW232236   2.246   2.821   1.177  0.2835 -1.8170 -0.2433
 8413SOL     OW32237   4.497   5.678   6.159 -0.4223  0.5805 -0.2302
 8413SOL    HW132238   4.478   5.616   6.083  3.7386  0.2530 -1.1249
 8413SOL    HW232239   4.510   5.625   6.243  0.6554  0.4198 -0.4887
 8414SOL     OW32240   4.844   6.097   5.022  0.1444  0.0655 -0.1637
 8414SOL    HW132241   4.839   6.080   5.120 -1.4962 -0.4368 -0.3220
 8414SOL    HW232242   4.815   6.191   5.003 -2.1092 -0.6671 -0.4140
 8415SOL     OW32243   0.886   0.535   2.153  0.4119  0.1855  0.3765
 8415SOL    HW132244   0.892   0.631   2.180  0.6440  0.6273 -1.1752
 8415SOL    HW232245   0.833   0.484   2.221 -0.3011  1.5451  0.8563
 8416SOL     OW32246   6.176   6.537   2.873  0.2983 -0.0666 -0.3901
 8416SOL    HW132247   6.232   6.459   2.902  0.6050 -0.2784 -1.5346
 8416SOL    HW232248   6.080   6.513   2.879  0.4007 -0.6664 -1.0716
 8417SOL     OW32249   2.623   4.301   6.173 -0.4411  0.0284  0.4879
 8417SOL    HW132250   2.556   4.334   6.106 -0.5054 -0.0851  0.4963
 8417SOL    HW232251   2.711   4.345   6.156 -0.3466 -0.3142  0.0636
 8418SOL     OW32252   5.958   5.243   3.848 -0.1739 -0.3031  0.0398
 8418SOL    HW132253   5.870   5.203   3.873 -0.3481 -0.4631 -0.8208
 8418SOL    HW232254   5.949   5.295   3.763 -0.0233  1.8492  1.2940
 8419SOL     OW32255   1.776   5.335   4.672  0.3051  0.2130 -0.2627
 8419SOL    HW132256   1.850   5.319   4.606  1.3477 -1.8394  1.3705
 8419SOL    HW232257   1.707   5.263   4.664 -0.9315  1.4297 -0.9115
 8420SOL     OW32258   4.001   1.977   6.249  0.7390 -0.4199  0.1648
 8420SOL    HW132259   3.938   1.961   6.325  0.8411 -0.7566  0.1822
 8420SOL    HW232260   4.016   2.075   6.237  0.3515 -0.3475  0.2754
 8421SOL     OW32261   3.410   6.816   5.717 -0.3073  0.5915  0.2572
 8421SOL    HW132262   3.485   6.881   5.706 -0.8060  1.1668  0.2660
 8421SOL    HW232263   3.323   6.860   5.694 -0.8445  0.4451  1.9194
 8422SOL     OW32264   3.324   5.369   4.226  0.3448  0.2279  0.6298
 8422SOL    HW132265   3.237   5.329   4.197  0.9400 -0.5542 -0.1098
 8422SOL    HW232266   3.373   5.403   4.145  0.8344  0.4414  1.0178
 8423SOL     OW32267   3.242   7.048   2.504  0.0123 -0.2512  0.2849
 8423SOL    HW132268   3.267   7.144   2.516  1.8186 -0.6593 -0.0645
 8423SOL    HW232269   3.278   6.995   2.581 -2.7296 -0.3712  1.5448
 8424SOL     OW32270   4.302   1.535   1.691  0.1836 -0.5049  0.2586
 8424SOL    HW132271   4.247   1.611   1.726  1.7659  1.7237 -1.8936
 8424SOL    HW232272   4.372   1.511   1.758 -0.5390 -0.3108  1.0929
 8425SOL     OW32273   1.084   3.040   6.306 -0.4183 -0.4569 -0.4724
 8425SOL    HW132274   1.141   3.102   6.360 -1.9791 -0.3151  1.0498
 8425SOL    HW232275   0.998   3.085   6.283 -1.5280 -1.9925  0.5524
 8426SOL     OW32276   4.956   3.435   3.523  0.2869 -0.0688 -0.3915
 8426SOL    HW132277   4.888   3.501   3.493  0.4208  0.0118 -0.5184
 8426SOL    HW232278   4.984   3.378   3.446  0.4114 -0.0575 -0.3554
 8427SOL     OW32279   4.620   7.311   4.118  0.4447  0.1450  0.0311
 8427SOL    HW132280   4.640   7.342   4.211  0.4746 -0.3949  0.2097
 8427SOL    HW232281   4.636   7.386   4.054  0.5761  0.4751  0.4432
 8428SOL     OW32282   1.581   6.871   6.245 -0.0609 -0.0190 -0.2990
 8428SOL    HW132283   1.625   6.800   6.189  0.6613  0.0146  0.2287
 8428SOL    HW232284   1.589   6.847   6.342 -0.5265  0.3795 -0.1578
 8429SOL     OW32285   1.082   6.749   6.825 -0.0269 -0.3587  0.7370
 8429SOL    HW132286   1.049   6.843   6.834 -1.0451 -0.6891  0.5315
 8429SOL    HW232287   1.042   6.693   6.896  0.6372 -0.6288  0.8993
 8430SOL     OW32288   4.403   0.259   3.654 -0.4373  0.2827  0.5162
 8430SOL    HW132289   4.308   0.288   3.663 -0.8975 -1.0369 -0.0525
 8430SOL    HW232290   4.417   0.173   3.702  0.2359 -0.0158 -0.1963
 8431SOL     OW32291   7.316   1.849   4.215 -0.1231 -0.0593  0.3231
 8431SOL    HW132292   7.390   1.783   4.198  0.0369  0.2971 -0.3752
 8431SOL    HW232293   7.234   1.799   4.244  0.1151 -0.5428  0.1865
 8432SOL     OW32294   4.603   1.150   1.371  0.3734 -0.3223  0.0920
 8432SOL    HW132295   4.512   1.123   1.400  0.2839  0.7000  0.7754
 8432SOL    HW232296   4.639   1.221   1.432  0.0420  2.1093 -2.4221
 8433SOL     OW32297   7.289   3.754   3.548 -0.2261 -0.2295  0.1402
 8433SOL    HW132298   7.378   3.777   3.590  0.0332 -0.5611 -0.2237
 8433SOL    HW232299   7.301   3.676   3.487 -0.2100  1.3929 -1.9950
 8434SOL     OW32300   2.617   4.042   2.799 -0.0624  0.1091  0.2979
 8434SOL    HW132301   2.614   3.944   2.821 -1.3870  0.3025  1.0421
 8434SOL    HW232302   2.614   4.054   2.700 -2.0160 -0.5612  0.2484
 8435SOL     OW32303   0.097   3.345   7.240 -0.1648 -0.0507 -0.5190
 8435SOL    HW132304   0.008   3.389   7.232 -0.1303 -0.3152 -2.9113
 8435SOL    HW232305   0.136   3.332   7.148  1.4533 -1.7185  0.3598
 8436SOL     OW32306   1.858   2.494   2.699  0.4323  0.0246 -0.1404
 8436SOL    HW132307   1.894   2.402   2.706 -0.7317 -0.5473 -1.3837
 8436SOL    HW232308   1.787   2.508   2.768  1.4502  0.4112  0.8446
 8437SOL     OW32309   1.937   6.625   1.498 -0.0154 -0.3137 -0.1820
 8437SOL    HW132310   1.927   6.702   1.560  0.4860 -0.4909  0.1169
 8437SOL    HW232311   1.847   6.598   1.463 -0.4333 -0.9570  1.3621
 8438SOL     OW32312   6.925   2.916   1.148 -0.3016  0.0302  0.0178
 8438SOL    HW132313   6.852   2.967   1.103 -0.5885 -0.2915  0.1193
 8438SOL    HW232314   7.004   2.909   1.087 -1.1197 -1.4260 -0.9069
 8439SOL     OW32315   4.420   6.936   4.572  0.1061 -0.2148  0.2649
 8439SOL    HW132316   4.377   7.006   4.628  0.4190  0.8522 -0.8094
 8439SOL    HW232317   4.411   6.961   4.475  0.3604 -1.5760 -0.1192
 8440SOL     OW32318   5.218   5.663   2.084  0.3128  0.4422 -0.2434
 8440SOL    HW132319   5.219   5.695   2.178  1.0475  2.9613 -1.0672
 8440SOL    HW232320   5.129   5.682   2.043  0.5578  0.9116 -0.5625
 8441SOL     OW32321   2.647   5.331   1.207  0.1662  0.5200  0.2501
 8441SOL    HW132322   2.561   5.290   1.238  0.7478 -0.5715  0.4474
 8441SOL    HW232323   2.637   5.362   1.113 -0.4583  0.4580  0.2909
 8442SOL     OW32324   1.807   2.450   5.880  0.5510 -0.3209  0.1272
 8442SOL    HW132325   1.757   2.454   5.967 -1.5174 -0.0426 -1.0426
 8442SOL    HW232326   1.805   2.356   5.846 -1.2439  0.1241 -1.0686
 8443SOL     OW32327   7.343   0.357   4.875 -0.2800 -0.2834 -0.0951
 8443SOL    HW132328   7.337   0.420   4.952  0.8095  0.1071 -0.3188
 8443SOL    HW232329   7.410   0.392   4.808  0.8380 -2.0004  0.0973
 8444SOL     OW32330   2.414   5.494   4.249  0.5735 -0.6399  0.2641
 8444SOL    HW132331   2.335   5.485   4.188 -0.6837  0.6344  1.6354
 8444SOL    HW232332   2.471   5.412   4.242 -1.2057 -1.8711 -0.3269
 8445SOL     OW32333   5.580   6.385   4.263  0.3227  0.6926 -0.4553
 8445SOL    HW132334   5.510   6.415   4.328 -1.3003 -0.8590 -1.4324
 8445SOL    HW232335   5.667   6.374   4.311 -1.0171 -1.1502  1.6588
 8446SOL     OW32336   5.945   3.141   0.327 -0.3723  0.4778  0.4729
 8446SOL    HW132337   5.942   3.051   0.369 -1.0553  0.0906 -0.4010
 8446SOL    HW232338   5.873   3.149   0.258 -0.3313  1.6921  0.5492
 8447SOL     OW32339   3.562   0.842   0.167  0.0941 -0.1381 -0.4914
 8447SOL    HW132340   3.607   0.760   0.205 -0.5107  0.2267  1.0760
 8447SOL    HW232341   3.618   0.923   0.188 -0.5093  0.1286  0.1023
 8448SOL     OW32342   0.103   5.402   7.195 -0.2171  0.1556 -1.1645
 8448SOL    HW132343   0.057   5.321   7.158  0.4151 -0.2581 -1.0617
 8448SOL    HW232344   0.074   5.483   7.146 -1.8377  0.0369 -0.4320
 8449SOL     OW32345   2.330   0.859   1.185 -0.3216  0.0984  0.4179
 8449SOL    HW132346   2.408   0.848   1.246 -0.5958 -1.5715  0.4994
 8449SOL    HW232347   2.267   0.926   1.223  0.7574  0.9766  0.6683
 8450SOL     OW32348   2.531   3.709   3.410 -0.2091 -0.0444  0.0324
 8450SOL    HW132349   2.564   3.801   3.389  0.9655 -0.7733 -1.4054
 8450SOL    HW232350   2.593   3.665   3.475  0.5115 -0.6678 -1.0794
 8451SOL     OW32351   5.885   0.001   6.261  0.4460 -0.3673 -0.2156
 8451SOL    HW132352   5.943   0.077   6.231 -1.6382  1.0478 -0.7741
 8451SOL    HW232353   5.857   0.015   6.356 -1.6805  0.7329 -0.9598
 8452SOL     OW32354   4.564   0.554   6.687 -0.1679 -0.5926  0.1914
 8452SOL    HW132355   4.662   0.547   6.669  0.0864 -0.0059  1.2976
 8452SOL    HW232356   4.547   0.628   6.752 -1.4072 -0.2995 -0.4438
 8453SOL     OW32357   5.948   4.788   2.635  0.0171  0.3750  0.6891
 8453SOL    HW132358   6.043   4.755   2.636 -0.0044  0.3122  0.5161
 8453SOL    HW232359   5.903   4.761   2.720  0.1464  0.3844  0.7618
 8454SOL     OW32360   6.069   7.071   4.887 -0.5694 -0.4188 -0.2061
 8454SOL    HW132361   6.136   7.040   4.954 -0.4530  1.4320  0.5410
 8454SOL    HW232362   6.000   7.128   4.932 -1.2117 -0.2239 -1.4210
 8455SOL     OW32363   0.326   5.272   0.428 -0.5110 -0.2102 -0.0369
 8455SOL    HW132364   0.289   5.179   0.420 -2.2054  0.1663  2.6636
 8455SOL    HW232365   0.252   5.338   0.420  0.5630  0.8727 -1.0908
 8456SOL     OW32366   6.322   6.635   3.628  0.1637 -0.2310  0.3413
 8456SOL    HW132367   6.393   6.617   3.697 -0.3878  2.7475  1.7744
 8456SOL    HW232368   6.233   6.642   3.674 -0.9617 -2.9427 -1.3218
 8457SOL     OW32369   0.411   5.060   0.835 -0.4310 -0.1173 -0.4131
 8457SOL    HW132370   0.466   5.039   0.754 -0.3226  0.0958 -0.3946
 8457SOL    HW232371   0.383   5.156   0.833  0.0234  0.0273  0.0676
 8458SOL     OW32372   1.604   2.314   7.060  0.4936 -0.0883  0.5783
 8458SOL    HW132373   1.583   2.359   6.974 -0.2879 -1.0455  0.2587
 8458SOL    HW232374   1.545   2.234   7.071 -0.5903  0.9657  2.7808
 8459SOL     OW32375   2.887   0.683   3.079 -0.0183  0.0733 -0.1847
 8459SOL    HW132376   2.806   0.741   3.082 -0.0842 -0.0088 -0.3904
 8459SOL    HW232377   2.888   0.624   3.160  0.3838  0.8101  0.3535
 8460SOL     OW32378   0.055   0.006   1.791  0.0195 -0.0438  0.7339
 8460SOL    HW132379   0.049  -0.090   1.764  0.7574  0.2629 -0.5583
 8460SOL    HW232380  -0.001   0.062   1.730 -1.3568  0.2289  2.2111
 8461SOL     OW32381   0.736   7.069   6.792  0.5437 -0.1532 -0.0515
 8461SOL    HW132382   0.654   7.041   6.843  0.5572 -3.3607 -1.6827
 8461SOL    HW232383   0.710   7.131   6.719 -0.0396  1.0951  1.1972
 8462SOL     OW32384   0.336   0.933   2.828  0.3378  0.1480 -0.0626
 8462SOL    HW132385   0.391   0.975   2.900  0.0184  2.1195 -0.9465
 8462SOL    HW232386   0.243   0.970   2.831  0.2760  0.1346 -1.4025
 8463SOL     OW32387   1.984   7.148   0.517  0.0202  0.9140 -0.2466
 8463SOL    HW132388   1.999   7.217   0.588  2.3447  1.0027 -0.7821
 8463SOL    HW232389   1.941   7.191   0.437  0.6520  1.5739 -0.2390
 8464SOL     OW32390   4.574   3.694   1.262  0.2002  0.1155 -0.8940
 8464SOL    HW132391   4.613   3.775   1.219 -1.0320  1.3132  0.2077
 8464SOL    HW232392   4.476   3.709   1.279 -0.1077 -1.7019 -0.9240
 8465SOL     OW32393   6.385   2.937   5.220 -0.0229  0.2165  0.8089
 8465SOL    HW132394   6.348   3.027   5.195  2.3714  0.4423 -2.3043
 8465SOL    HW232395   6.471   2.949   5.270  1.0856 -0.2978 -0.9247
 8466SOL     OW32396   1.824   5.821   5.903  0.0761 -0.4973  0.7884
 8466SOL    HW132397   1.919   5.850   5.891 -0.1224 -0.4294 -0.6208
 8466SOL    HW232398   1.785   5.867   5.983  0.7739  0.6051  0.5032
 8467SOL     OW32399   2.399   5.937   1.146  0.3659  0.0661  0.3566
 8467SOL    HW132400   2.420   5.923   1.242  1.8231 -1.2042 -0.1125
 8467SOL    HW232401   2.422   6.030   1.119 -0.6187  0.6113  1.3678
 8468SOL     OW32402   0.353   1.906   5.549 -0.0279  0.2100  1.3606
 8468SOL    HW132403   0.393   1.816   5.562  0.3189  0.3331  1.1808
 8468SOL    HW232404   0.369   1.962   5.630 -0.8539 -0.1170  1.7417
 8469SOL     OW32405   5.229   2.956   1.728 -0.0041 -0.3984 -0.4849
 8469SOL    HW132406   5.168   2.877   1.728  1.7326 -1.7871 -0.8407
 8469SOL    HW232407   5.210   3.014   1.807 -0.4488 -1.8447  0.4816
 8470SOL     OW32408   2.486   5.366   5.269  0.0826 -0.6113 -0.1369
 8470SOL    HW132409   2.419   5.305   5.227 -1.2909 -0.0548  1.2049
 8470SOL    HW232410   2.467   5.375   5.367 -0.1498  2.4320 -0.4105
 8471SOL     OW32411   4.127   2.604   0.233  0.2150  0.4646  0.1795
 8471SOL    HW132412   4.104   2.559   0.320 -0.0901  1.4163  0.5903
 8471SOL    HW232413   4.190   2.545   0.182 -0.0949 -0.3943  0.7577
 8472SOL     OW32414   7.334   6.804   6.584  0.1379  0.7742  0.7159
 8472SOL    HW132415   7.383   6.791   6.498 -2.4093 -1.7615 -0.4273
 8472SOL    HW232416   7.245   6.848   6.566 -0.8301 -0.6656  1.9010
 8473SOL     OW32417   6.118   7.279   0.101  0.3690  0.2595  0.1936
 8473SOL    HW132418   6.176   7.328   0.035  3.3231  1.1088  3.3201
 8473SOL    HW232419   6.175   7.227   0.164 -2.4527 -1.3588  1.4956
 8474SOL     OW32420   3.994   0.932   5.522  0.1643  0.2690  0.7365
 8474SOL    HW132421   4.077   0.878   5.508 -0.2070 -0.4959  1.4392
 8474SOL    HW232422   4.002   0.983   5.608  0.1955  0.7502  0.4519
 8475SOL     OW32423   3.362   7.021   6.016 -0.1681  0.6720 -0.5339
 8475SOL    HW132424   3.309   7.068   6.086 -1.5792 -0.6057 -0.7337
 8475SOL    HW232425   3.350   6.922   6.025  0.8746  0.4340 -1.6073
 8476SOL     OW32426   4.241   2.237   1.462  0.8825  0.3177  0.1218
 8476SOL    HW132427   4.290   2.275   1.383 -0.7134  2.2707  0.0465
 8476SOL    HW232428   4.289   2.263   1.546  0.6343  1.2233 -0.0144
 8477SOL     OW32429   5.254   6.342   7.088 -0.1345 -0.4296 -0.6537
 8477SOL    HW132430   5.206   6.329   7.175  0.4094 -1.9644 -0.5656
 8477SOL    HW232431   5.274   6.439   7.075 -2.7444  0.1647 -0.4330
 8478SOL     OW32432   1.056   6.332   0.993  0.2174  0.2651 -0.1181
 8478SOL    HW132433   1.045   6.252   0.934  1.1622  0.2274 -0.2468
 8478SOL    HW232434   0.991   6.403   0.966 -1.3760 -0.8516  0.6882
 8479SOL     OW32435   2.141   5.578   0.604 -0.6250  0.5960  0.3037
 8479SOL    HW132436   2.167   5.674   0.612  0.4333  0.3119  0.4463
 8479SOL    HW232437   2.217   5.527   0.562  0.0883 -0.7162  3.0520
 8480SOL     OW32438   1.292   1.147   1.717 -0.1260 -0.3578  0.6671
 8480SOL    HW132439   1.329   1.089   1.644 -0.9370 -1.0539  0.8080
 8480SOL    HW232440   1.252   1.230   1.678  1.7722  0.5258  0.5241
 8481SOL     OW32441   6.035   3.515   2.723 -0.1100  0.2666 -0.2173
 8481SOL    HW132442   6.087   3.554   2.647  0.0586  0.6481  0.0917
 8481SOL    HW232443   6.062   3.560   2.808 -0.2580 -0.1999  0.0743
 8482SOL     OW32444   5.056   6.996   4.804 -0.5528 -0.3493 -0.2078
 8482SOL    HW132445   5.001   6.964   4.882 -0.6627 -2.2143 -1.0285
 8482SOL    HW232446   5.119   6.923   4.776  0.4810  0.8246 -0.9774
 8483SOL     OW32447   1.077   2.979   5.509  0.3939  0.5464 -0.0534
 8483SOL    HW132448   1.131   2.922   5.447  0.3492  0.5965 -0.1385
 8483SOL    HW232449   1.085   2.943   5.602  3.4892  2.6654  0.5619
 8484SOL     OW32450   3.541   6.691   6.038  0.1631  0.1228  0.3458
 8484SOL    HW132451   3.457   6.697   5.984  1.3056  0.8952 -1.3913
 8484SOL    HW232452   3.618   6.725   5.983  1.4149  0.5678  2.3420
 8485SOL     OW32453   4.164   6.503   1.175  0.2411 -0.3854  0.6568
 8485SOL    HW132454   4.183   6.421   1.120  0.5806  1.0710 -1.4539
 8485SOL    HW232455   4.119   6.572   1.118  3.0589  2.2327  1.4913
 8486SOL     OW32456   6.982   1.637   2.560  0.1040  0.4371  0.4652
 8486SOL    HW132457   6.903   1.698   2.558 -0.5032 -0.3709 -0.7935
 8486SOL    HW232458   7.063   1.688   2.588 -0.3561  1.8707 -0.7817
 8487SOL     OW32459   5.385   3.089   6.028  0.1656  0.2131  0.2068
 8487SOL    HW132460   5.482   3.091   6.005 -0.2233 -1.7551 -1.8274
 8487SOL    HW232461   5.354   3.181   6.052  1.9686  1.3151 -1.5299
 8488SOL     OW32462   3.635   6.973   2.847 -0.0218 -0.0943  0.6452
 8488SOL    HW132463   3.538   6.995   2.855  0.1243  0.6495  0.4161
 8488SOL    HW232464   3.663   6.917   2.925 -1.1250 -2.1539 -0.4203
 8489SOL     OW32465   3.828   7.252   0.186 -0.0731 -0.2382  0.1249
 8489SOL    HW132466   3.807   7.161   0.150 -0.6940  0.5766 -1.6665
 8489SOL    HW232467   3.910   7.248   0.242 -0.3383 -1.9805  0.4078
 8490SOL     OW32468   2.327   3.879   0.396 -0.7991  0.1927 -0.1247
 8490SOL    HW132469   2.405   3.819   0.377 -0.4495  0.0109  1.7836
 8490SOL    HW232470   2.355   3.974   0.381 -1.2405 -0.0519 -2.7708
 8491SOL     OW32471   7.052   7.318   0.028  0.1543 -0.3922 -0.3946
 8491SOL    HW132472   7.015   7.356   0.113 -0.9953 -0.3171 -0.9265
 8491SOL    HW232473   7.143   7.358   0.011 -1.1911  2.4662 -1.1691
 8492SOL     OW32474   4.142   0.943   6.706 -0.3949 -0.5233 -0.4224
 8492SOL    HW132475   4.156   1.021   6.767 -1.3180 -0.1486 -0.6850
 8492SOL    HW232476   4.172   0.860   6.752 -0.3433 -0.1422  0.2446
 8493SOL     OW32477   5.867   1.305   1.556 -0.1315 -0.7344  0.0906
 8493SOL    HW132478   5.899   1.211   1.548 -1.4821 -1.1514 -0.6139
 8493SOL    HW232479   5.804   1.312   1.633 -2.3896 -1.1114 -1.6666
 8494SOL     OW32480   5.702   1.358   2.735 -0.0160  0.4210  0.3850
 8494SOL    HW132481   5.798   1.332   2.736  0.0360  0.5065 -1.1838
 8494SOL    HW232482   5.645   1.276   2.742  0.1714  0.4074  1.7526
 8495SOL     OW32483   6.180   3.289   6.836  1.1103  0.7040  0.4449
 8495SOL    HW132484   6.152   3.200   6.872  1.8514  0.3012  0.0261
 8495SOL    HW232485   6.103   3.329   6.785  1.6339 -0.9368 -1.7069
 8496SOL     OW32486   4.963   4.735   2.836  0.1988 -0.2471  0.3817
 8496SOL    HW132487   4.970   4.834   2.841 -1.9255 -0.0284 -0.7720
 8496SOL    HW232488   4.867   4.707   2.839  0.6978 -2.1991 -0.6922
 8497SOL     OW32489   1.075   3.398   6.312 -0.1221 -0.1663  0.0662
 8497SOL    HW132490   1.059   3.444   6.400 -0.0379 -0.6100  0.3166
 8497SOL    HW232491   1.157   3.436   6.269 -0.4691  0.4262 -0.0739
 8498SOL     OW32492   2.153   5.577   6.426 -0.4589 -0.2245  0.1499
 8498SOL    HW132493   2.058   5.584   6.453 -0.4996  1.3071 -0.3494
 8498SOL    HW232494   2.168   5.629   6.342  0.6450 -1.1204 -0.2276
 8499SOL     OW32495   1.746   2.933   5.963  0.6265  0.0041 -0.4379
 8499SOL    HW132496   1.679   2.941   5.889 -0.2872  1.8470  0.5625
 8499SOL    HW232497   1.804   2.853   5.946 -2.8313 -2.6276 -0.4901
 8500SOL     OW32498   6.965   2.454   6.100 -0.0626  0.4769 -0.2603
 8500SOL    HW132499   7.032   2.432   6.029  0.2975  0.0679  0.1958
 8500SOL    HW232500   6.977   2.391   6.177 -1.2365  0.1598 -0.3380
 8501SOL     OW32501   5.169   4.934   0.803 -1.0633 -0.0055  0.4348
 8501SOL    HW132502   5.212   4.913   0.891  0.8669 -1.4620 -0.8259
 8501SOL    HW232503   5.156   4.849   0.751 -1.2318  0.9526 -1.1186
 8502SOL     OW32504   2.897   6.576   1.792 -0.1112 -0.6338  0.1858
 8502SOL    HW132505   2.833   6.517   1.744 -0.7539  0.1065  0.1265
 8502SOL    HW232506   2.990   6.555   1.762 -0.5968  0.6666 -2.3177
 8503SOL     OW32507   0.401   1.125   3.088  0.5942  0.7442  0.3286
 8503SOL    HW132508   0.304   1.136   3.067  0.3585  1.5928  1.7995
 8503SOL    HW232509   0.456   1.145   3.006 -0.5245 -1.5157 -1.0249
 8504SOL     OW32510   0.926   5.106   5.001  0.6549 -0.2543  0.3673
 8504SOL    HW132511   0.862   5.143   5.068  2.6708 -1.7560  3.2627
 8504SOL    HW232512   0.955   5.014   5.031  3.1822 -0.1030 -1.4876
 8505SOL     OW32513   3.725   3.168   4.768  0.3581  0.2706 -0.1540
 8505SOL    HW132514   3.630   3.167   4.739  1.0716 -2.7692 -2.6129
 8505SOL    HW232515   3.730   3.148   4.866 -1.5382  0.7369  0.0525
 8506SOL     OW32516   0.920   2.645   2.704 -0.2146  0.3113  0.4288
 8506SOL    HW132517   0.928   2.575   2.633  1.4272  1.2779 -0.3587
 8506SOL    HW232518   0.971   2.616   2.785  0.6538  0.6924  0.0216
 8507SOL     OW32519   1.746   4.528   3.607  0.7001 -0.0205 -0.7416
 8507SOL    HW132520   1.686   4.605   3.584  1.1099  0.6603  0.4523
 8507SOL    HW232521   1.723   4.450   3.549 -2.1592 -0.1686  0.5076
 8508SOL     OW32522   0.820   6.891   5.396 -0.3820 -0.2075 -0.1652
 8508SOL    HW132523   0.909   6.845   5.395 -0.3134 -0.2521  3.0545
 8508SOL    HW232524   0.825   6.974   5.340  1.6505 -0.2669 -0.1072
 8509SOL     OW32525   0.733   5.450   4.737  0.8830 -0.0815 -0.3653
 8509SOL    HW132526   0.804   5.399   4.784  2.2039  0.6997 -1.4817
 8509SOL    HW232527   0.699   5.397   4.659  1.3495  0.2030 -0.7629
 8510SOL     OW32528   2.242   4.323   7.153 -0.4678 -0.1080  0.6904
 8510SOL    HW132529   2.155   4.275   7.163 -2.2923  2.9674  0.5518
 8510SOL    HW232530   2.277   4.311   7.060 -0.5804 -1.6044  0.8358
 8511SOL     OW32531   4.374   0.594   7.185  0.4230  0.1329 -0.6381
 8511SOL    HW132532   4.381   0.692   7.167  2.2045  0.6770  2.5192
 8511SOL    HW232533   4.281   0.572   7.214  0.4009  1.2076  0.1496
 8512SOL     OW32534   2.199   4.883   3.954  0.7936 -0.3305 -0.1670
 8512SOL    HW132535   2.130   4.813   3.934 -1.7523  1.1079  3.0011
 8512SOL    HW232536   2.171   4.970   3.912  0.7115  0.2113  0.9724
 8513SOL     OW32537   5.405   2.747   0.948 -0.1616 -0.5506 -0.3908
 8513SOL    HW132538   5.499   2.756   0.916  0.1893  1.8517  1.1300
 8513SOL    HW232539   5.341   2.766   0.873  0.5522 -1.9550 -1.3656
 8514SOL     OW32540   1.029   5.650   2.025 -0.2864 -0.2067 -0.5717
 8514SOL    HW132541   1.104   5.591   2.056  0.5852  2.0582  1.7646
 8514SOL    HW232542   0.941   5.609   2.052  0.3200 -0.2773  1.3457
 8515SOL     OW32543   4.625   1.793   3.675  0.3921 -0.4593 -0.0874
 8515SOL    HW132544   4.673   1.708   3.655  1.5238  0.2377 -0.4050
 8515SOL    HW232545   4.690   1.861   3.709 -0.5125  0.2455  0.2597
 8516SOL     OW32546   0.954   3.377   2.034 -0.1493  0.0468 -0.3246
 8516SOL    HW132547   0.965   3.449   2.102 -1.0161 -0.3391  0.2305
 8516SOL    HW232548   1.039   3.367   1.982  0.8517 -0.3156  1.3426
 8517SOL     OW32549   6.110   5.208   4.557  0.4330 -0.0905 -0.2086
 8517SOL    HW132550   6.159   5.284   4.597  1.5130 -1.2821  0.7516
 8517SOL    HW232551   6.014   5.211   4.585  1.0231 -0.5097  1.8864
 8518SOL     OW32552   6.998   3.424   5.729 -0.3601 -0.5876 -0.0252
 8518SOL    HW132553   6.966   3.501   5.674  0.4022  0.1167  0.5034
 8518SOL    HW232554   7.074   3.453   5.786 -0.3254 -1.6351  0.4816
 8519SOL     OW32555   7.333   6.546   7.084  0.3379 -0.6426 -0.4605
 8519SOL    HW132556   7.312   6.473   7.149 -1.4011  0.0903 -0.1708
 8519SOL    HW232557   7.408   6.517   7.025  1.0887 -1.8235  1.0325
 8520SOL     OW32558   2.853   1.664   0.202  0.5644  0.4527 -0.2999
 8520SOL    HW132559   2.920   1.611   0.150  0.1152 -0.2119 -0.2096
 8520SOL    HW232560   2.866   1.646   0.300  0.6197  0.7649 -0.2491
 8521SOL     OW32561   2.438   6.677   1.733 -0.2345 -0.2108 -0.1735
 8521SOL    HW132562   2.390   6.688   1.820  0.5775 -2.6760  0.6240
 8521SOL    HW232563   2.530   6.717   1.740 -0.2443 -0.2239  0.0242
 8522SOL     OW32564   6.321   3.912   2.634 -0.0780 -0.1920 -0.0675
 8522SOL    HW132565   6.393   3.906   2.565 -0.9964  1.3982 -1.2142
 8522SOL    HW232566   6.285   4.006   2.636 -0.7109 -0.4572  1.9151
 8523SOL     OW32567   5.858   1.789   6.148  0.1536  0.1521  0.0436
 8523SOL    HW132568   5.827   1.695   6.135  1.0299 -0.1965  0.4383
 8523SOL    HW232569   5.949   1.789   6.190 -0.8090  1.2032  2.2233
 8524SOL     OW32570   3.931   5.577   2.040 -0.2364  0.0277 -0.0119
 8524SOL    HW132571   3.937   5.613   1.947  1.6217 -0.3510 -0.0765
 8524SOL    HW232572   3.871   5.497   2.041 -2.9524  2.0177 -0.2052
 8525SOL     OW32573   3.816   2.914   2.585 -0.1807 -0.3020  0.0494
 8525SOL    HW132574   3.782   3.006   2.565 -0.8321 -0.3630  0.8594
 8525SOL    HW232575   3.911   2.906   2.554  0.0916  0.8554  0.5613
 8526SOL     OW32576   7.254   4.889   7.260  0.2609 -0.9269 -0.2457
 8526SOL    HW132577   7.294   4.929   7.342  0.3771  0.8243 -1.1275
 8526SOL    HW232578   7.327   4.858   7.199  0.2018 -1.0601 -0.2480
 8527SOL     OW32579   2.500   3.448   3.757  0.1436  0.0336 -0.5066
 8527SOL    HW132580   2.484   3.423   3.662  0.3848 -2.5035  0.1015
 8527SOL    HW232581   2.441   3.394   3.817 -1.8152  3.3201  0.7093
 8528SOL     OW32582   0.827   5.755   2.328  0.4857  0.7508 -0.1302
 8528SOL    HW132583   0.881   5.839   2.319  1.4007 -0.0698 -2.8518
 8528SOL    HW232584   0.758   5.753   2.256 -1.8143  0.7783  2.0411
 8529SOL     OW32585   3.505   5.299   2.010  0.1485 -0.3691 -0.6839
 8529SOL    HW132586   3.497   5.202   1.989  0.1445 -0.2846 -1.0927
 8529SOL    HW232587   3.417   5.335   2.040 -0.1877 -0.2037 -1.8191
 8530SOL     OW32588   5.901   5.943   2.655 -0.2305 -0.3683 -0.1214
 8530SOL    HW132589   5.897   5.952   2.556 -0.8515  1.1659  0.0152
 8530SOL    HW232590   5.959   5.866   2.680 -0.4562 -1.0564 -1.6810
 8531SOL     OW32591   5.339   4.852   4.904  0.0469  0.4340 -0.2551
 8531SOL    HW132592   5.429   4.881   4.869 -0.3432  2.3596  0.2521
 8531SOL    HW232593   5.329   4.885   4.998 -1.2999  0.4682 -0.4068
 8532SOL     OW32594   3.710   5.758   7.081 -0.1373 -0.5880  0.4585
 8532SOL    HW132595   3.678   5.756   7.175 -0.7026  0.5871  0.2993
 8532SOL    HW232596   3.791   5.817   7.074 -0.4108 -0.2506  0.1152
 8533SOL     OW32597   5.843   6.965   3.831 -0.9750 -0.1428  0.2965
 8533SOL    HW132598   5.869   6.882   3.880 -0.8418  0.1389  0.7020
 8533SOL    HW232599   5.924   7.007   3.791 -0.9829  0.0278  0.4591
 8534SOL     OW32600   3.241   1.081   4.948 -0.0612  0.4754 -0.2199
 8534SOL    HW132601   3.327   1.050   4.905  1.1870 -0.7216  2.9927
 8534SOL    HW232602   3.174   1.006   4.945  0.9851 -0.6218  2.3360
 8535SOL     OW32603   4.596   2.396   3.949  0.3528  0.1613 -0.0231
 8535SOL    HW132604   4.589   2.329   3.875  3.6058 -1.5480  1.0956
 8535SOL    HW232605   4.505   2.429   3.973 -0.9221 -0.5805 -3.5531
 8536SOL     OW32606   4.948   6.483   4.619 -0.0794  0.2512 -0.7153
 8536SOL    HW132607   4.918   6.387   4.624 -1.4172  0.5608 -2.3965
 8536SOL    HW232608   4.882   6.536   4.566  0.6421  2.1274  0.2119
 8537SOL     OW32609   3.873   3.380   2.569  0.2279  0.2094 -0.1734
 8537SOL    HW132610   3.840   3.412   2.480  0.6318 -0.0598 -0.4208
 8537SOL    HW232611   3.973   3.379   2.570  0.2263 -1.8080 -0.4507
 8538SOL     OW32612   5.824   7.145   1.631  0.1091  0.0991  0.5242
 8538SOL    HW132613   5.901   7.208   1.633  0.6909 -0.5793 -0.0148
 8538SOL    HW232614   5.783   7.139   1.722  0.5076  0.6949  0.7410
 8539SOL     OW32615   3.596   5.283   6.410 -0.6051 -0.0537  0.0683
 8539SOL    HW132616   3.526   5.277   6.481  0.8299  0.1730  1.5277
 8539SOL    HW232617   3.574   5.357   6.347 -1.7371 -0.0600  0.4552
 8540SOL     OW32618   6.806   4.220   6.446 -0.1312  0.2583 -0.2963
 8540SOL    HW132619   6.836   4.247   6.537 -0.0226 -0.4600 -0.1133
 8540SOL    HW232620   6.725   4.272   6.421 -0.0103  0.6460  0.0998
 8541SOL     OW32621   1.536   4.551   4.644 -0.2518  0.0459 -0.3363
 8541SOL    HW132622   1.613   4.564   4.582 -0.3803 -0.5800 -0.6293
 8541SOL    HW232623   1.488   4.467   4.620 -0.9080  0.3339 -0.0250
 8542SOL     OW32624   3.650   0.380   6.211  0.0388 -0.1859  0.1377
 8542SOL    HW132625   3.650   0.476   6.238 -0.6478  0.1800 -1.0861
 8542SOL    HW232626   3.694   0.371   6.121 -1.0456 -0.8101 -0.3461
 8543SOL     OW32627   5.249   3.934   2.347  0.3640 -0.1479  0.4922
 8543SOL    HW132628   5.261   3.954   2.444 -0.8430 -0.6205  0.7375
 8543SOL    HW232629   5.236   3.836   2.334 -1.6045  0.1498  0.0727
 8544SOL     OW32630   0.904   2.672   5.521 -0.1884  0.2695 -0.1769
 8544SOL    HW132631   0.847   2.591   5.512 -0.1444  0.2655 -0.4226
 8544SOL    HW232632   0.918   2.714   5.431  1.7596 -0.7956 -0.4008
 8545SOL     OW32633   7.093   5.001   6.892  0.1798  0.1628  0.1950
 8545SOL    HW132634   7.192   4.988   6.894  0.1442  0.1310  1.9809
 8545SOL    HW232635   7.072   5.088   6.845  1.0136 -0.0573 -0.5943
 8546SOL     OW32636   3.584   2.525   6.080 -0.3605 -0.6316  0.0114
 8546SOL    HW132637   3.662   2.474   6.043  0.9070  0.6024  0.9502
 8546SOL    HW232638   3.579   2.511   6.179 -0.8999 -0.1203  0.0584
 8547SOL     OW32639   5.138   6.581   2.438  0.0375 -0.4472 -0.1616
 8547SOL    HW132640   5.181   6.638   2.367 -0.2325  0.5388  0.4463
 8547SOL    HW232641   5.102   6.498   2.397  2.0446 -1.0459 -0.7793
 8548SOL     OW32642   1.891   6.411   7.172 -0.6156 -0.2047  0.6745
 8548SOL    HW132643   1.810   6.436   7.226 -1.3223 -1.8102  0.3921
 8548SOL    HW232644   1.895   6.311   7.163 -0.7582  0.0300 -2.6168
 8549SOL     OW32645   2.845   1.709   6.011  0.3281  0.4807  0.0501
 8549SOL    HW132646   2.804   1.735   5.924  2.2297 -0.2321 -1.1021
 8549SOL    HW232647   2.814   1.618   6.038 -1.5009  1.3434  0.9530
 8550SOL     OW32648   3.328   5.517   6.077 -0.4195 -0.0579  0.0503
 8550SOL    HW132649   3.300   5.494   5.984 -0.4355 -0.9086  0.2643
 8550SOL    HW232650   3.251   5.504   6.140 -0.6448  1.2812  0.0742
 8551SOL     OW32651   4.785   0.388   6.525  0.1028  0.8370  0.4075
 8551SOL    HW132652   4.786   0.477   6.480  1.5932  1.9080  2.4761
 8551SOL    HW232653   4.877   0.366   6.558 -0.4144 -1.0874  0.6651
 8552SOL     OW32654   3.639   6.395   1.098 -0.4085 -0.0861 -0.6759
 8552SOL    HW132655   3.714   6.360   1.154 -0.3401  1.0338 -0.0573
 8552SOL    HW232656   3.605   6.322   1.038 -0.6562 -1.3771  0.9978
 8553SOL     OW32657   6.668   3.502   6.510  0.0355 -0.3674  0.3868
 8553SOL    HW132658   6.697   3.407   6.514 -0.7846 -0.5929  1.1480
 8553SOL    HW232659   6.568   3.507   6.513  0.1100  0.6019  2.5209
 8554SOL     OW32660   0.905   4.278   6.231  0.5807 -0.3254  0.1445
 8554SOL    HW132661   0.984   4.240   6.279  1.8530 -0.1702 -1.7202
 8554SOL    HW232662   0.838   4.206   6.215  0.1547 -0.3774  2.0949
 8555SOL     OW32663   0.759   4.032   1.801 -0.5995 -0.6810 -0.4851
 8555SOL    HW132664   0.696   3.955   1.810  0.5296 -1.7516 -1.6459
 8555SOL    HW232665   0.847   4.009   1.840 -0.6093  0.4693  0.2505
 8556SOL     OW32666   5.815   0.303   3.423  0.6462  0.0441  0.6385
 8556SOL    HW132667   5.890   0.325   3.361 -0.7240 -0.3337 -1.2154
 8556SOL    HW232668   5.728   0.332   3.382 -0.2468  0.5094  2.7430
 8557SOL     OW32669   6.171   4.647   7.327  0.2657 -0.0334 -0.1564
 8557SOL    HW132670   6.199   4.714   7.396 -0.4729  0.0133  0.1127
 8557SOL    HW232671   6.236   4.572   7.325  0.8014  0.4253 -0.0682
 8558SOL     OW32672   2.858   3.687   3.151 -0.1532  0.2623 -0.4563
 8558SOL    HW132673   2.763   3.660   3.164 -0.3915  0.5827 -1.5054
 8558SOL    HW232674   2.895   3.721   3.237 -1.0685  0.4023 -0.1116
 8559SOL     OW32675   7.236   0.636   1.512 -0.2584 -0.6765 -0.9035
 8559SOL    HW132676   7.289   0.591   1.584 -0.1136 -1.0446 -1.2408
 8559SOL    HW232677   7.189   0.715   1.551 -0.6518 -1.2136 -0.2729
 8560SOL     OW32678   1.485   3.604   4.396 -0.0707  0.3427  0.4003
 8560SOL    HW132679   1.540   3.552   4.331 -0.2161  1.9727 -1.0451
 8560SOL    HW232680   1.535   3.612   4.482  0.9638 -0.1639 -0.1427
 8561SOL     OW32681   6.383   6.734   3.304 -0.0554 -0.3205  0.1500
 8561SOL    HW132682   6.377   6.655   3.365 -0.6698 -1.8195 -1.7960
 8561SOL    HW232683   6.294   6.751   3.263  0.1904  1.1079  0.2053
 8562SOL     OW32684   1.729   7.298   6.895  0.3631  0.4659 -0.3136
 8562SOL    HW132685   1.808   7.247   6.863  0.3145  0.4471 -0.4058
 8562SOL    HW232686   1.667   7.313   6.818  0.2974  0.5163 -0.2505
 8563SOL     OW32687   0.078   6.351   2.080 -0.0267  0.1355 -0.3448
 8563SOL    HW132688  -0.005   6.370   2.027 -0.0482 -1.1577 -0.7818
 8563SOL    HW232689   0.156   6.343   2.017 -0.1722 -2.0953 -0.2611
 8564SOL     OW32690   6.975   0.475   6.398  0.1207 -0.3830  0.2624
 8564SOL    HW132691   6.893   0.482   6.342 -0.3025  1.1133  1.0455
 8564SOL    HW232692   7.056   0.475   6.339 -0.3370  0.7875 -0.3673
 8565SOL     OW32693   4.787   4.377   0.124 -0.3017 -0.5624  0.0269
 8565SOL    HW132694   4.716   4.405   0.059 -0.1874 -1.0720 -0.3243
 8565SOL    HW232695   4.856   4.449   0.132  0.0999 -0.8196 -1.0155
 8566SOL     OW32696   1.266   1.375   2.676 -0.1586 -0.4088 -0.0925
 8566SOL    HW132697   1.211   1.392   2.757  0.5469 -0.5641  0.4215
 8566SOL    HW232698   1.350   1.428   2.681  0.2454 -1.0191 -0.3468
 8567SOL     OW32699   5.971   4.772   2.065  0.8724  0.1390  0.5028
 8567SOL    HW132700   5.913   4.807   1.991 -0.0007  0.9828  1.5779
 8567SOL    HW232701   6.013   4.848   2.113 -0.2719 -0.3063  2.2422
 8568SOL     OW32702   6.414   3.445   6.783 -0.4301 -0.5083  0.0719
 8568SOL    HW132703   6.411   3.482   6.690  1.7881 -0.8135 -0.1537
 8568SOL    HW232704   6.341   3.378   6.794 -1.6409  0.6214 -0.9688
 8569SOL     OW32705   0.909   3.653   6.753  0.1771 -0.3555 -0.5560
 8569SOL    HW132706   0.815   3.644   6.787  1.2139  0.0007  2.6291
 8569SOL    HW232707   0.931   3.749   6.740  1.2021 -0.1593  2.2365
 8570SOL     OW32708   5.242   0.130   6.929 -0.4297  0.1520  0.2901
 8570SOL    HW132709   5.306   0.079   6.871  1.8994  2.0487  1.1193
 8570SOL    HW232710   5.254   0.102   7.024 -1.3155  0.0283  0.3639
 8571SOL     OW32711   3.351   1.941   4.632 -0.1845  0.3867 -0.0122
 8571SOL    HW132712   3.427   1.923   4.694  0.3675  0.1224 -0.7523
 8571SOL    HW232713   3.365   1.890   4.547 -1.8696 -0.7146  0.3634
 8572SOL     OW32714   0.987   4.674   1.509  0.5576  0.0283 -0.4626
 8572SOL    HW132715   0.946   4.753   1.463  1.5530  0.2983 -0.8884
 8572SOL    HW232716   1.044   4.706   1.585  0.0298 -0.3453  0.0984
 8573SOL     OW32717   5.926   2.285   2.587 -0.6148  0.5981 -0.7102
 8573SOL    HW132718   5.840   2.253   2.549  0.5000 -0.3885 -2.4684
 8573SOL    HW232719   6.002   2.238   2.542  0.8589  1.7619  0.5047
 8574SOL     OW32720   1.986   6.618   6.930  0.2516  0.1965 -0.1418
 8574SOL    HW132721   2.042   6.588   7.007 -0.8727 -1.7367 -0.0429
 8574SOL    HW232722   2.017   6.708   6.899 -0.6911  2.0668  3.9980
 8575SOL     OW32723   3.734   1.367   2.760 -0.2181  0.4965  0.5268
 8575SOL    HW132724   3.696   1.402   2.675  1.0143  0.2484 -0.1472
 8575SOL    HW232725   3.803   1.430   2.794  0.0033  0.1100  0.8007
 8576SOL     OW32726   5.458   2.100   3.844  0.0749  0.6201  0.1104
 8576SOL    HW132727   5.476   2.033   3.916  0.3876 -1.0737 -1.4991
 8576SOL    HW232728   5.505   2.072   3.760 -3.0910  0.6520 -1.7592
 8577SOL     OW32729   5.661   1.285   0.408 -0.4223 -0.3041 -0.1228
 8577SOL    HW132730   5.632   1.377   0.433  0.6257 -0.5496  2.1085
 8577SOL    HW232731   5.747   1.263   0.454 -0.3963 -2.2259 -1.0096
 8578SOL     OW32732   3.666   0.388   3.577  0.1806  0.0810 -0.4763
 8578SOL    HW132733   3.751   0.422   3.617  0.5601 -0.8008 -0.5228
 8578SOL    HW232734   3.589   0.444   3.609  0.8658  1.4290 -1.1114
 8579SOL     OW32735   2.848   5.356   4.266  0.2923 -0.0061 -0.2173
 8579SOL    HW132736   2.861   5.448   4.303  0.7891  0.3846 -1.3310
 8579SOL    HW232737   2.756   5.324   4.287 -0.4990  1.4585 -1.3269
 8580SOL     OW32738   3.207   6.052   3.048 -0.0063  0.5324  0.0437
 8580SOL    HW132739   3.225   5.973   3.108 -1.0767  1.1128  1.1338
 8580SOL    HW232740   3.245   6.033   2.957 -0.9656 -1.5860  0.0545
 8581SOL     OW32741   4.975   3.835   0.477  0.3569  0.8942 -0.6104
 8581SOL    HW132742   4.940   3.892   0.402 -2.5249  2.4981  1.8313
 8581SOL    HW232743   4.970   3.739   0.451  0.7353  1.4843 -2.9933
 8582SOL     OW32744   3.923   3.860   1.802 -0.6210  0.0393 -0.4542
 8582SOL    HW132745   3.994   3.810   1.853 -0.7434  0.2576 -0.0724
 8582SOL    HW232746   3.865   3.910   1.866 -1.6376 -0.7943 -0.7003
 8583SOL     OW32747   0.355   2.991   3.310  0.4041 -0.2336  0.0653
 8583SOL    HW132748   0.453   2.989   3.289  0.4488  0.1085  0.2428
 8583SOL    HW232749   0.341   2.982   3.408  0.1932 -1.7954 -0.0820
 8584SOL     OW32750   3.988   6.630   4.682 -0.3943  0.2076 -0.5463
 8584SOL    HW132751   4.085   6.606   4.670 -0.4310 -0.3691  0.3039
 8584SOL    HW232752   3.964   6.701   4.616  0.9555  1.3239  0.1275
 8585SOL     OW32753   2.476   6.908   1.088 -0.3619  0.0292  0.1474
 8585SOL    HW132754   2.405   6.927   1.020  0.1332  0.9881 -0.1136
 8585SOL    HW232755   2.439   6.848   1.159 -1.1781 -0.1672 -0.4283
 8586SOL     OW32756   2.781   6.266   6.130 -0.2257 -0.1096  0.0657
 8586SOL    HW132757   2.788   6.195   6.201  3.3132 -1.9130 -1.9549
 8586SOL    HW232758   2.799   6.355   6.170 -1.8446 -0.6646  2.1047
 8587SOL     OW32759   4.382   6.570   1.344 -0.0804  0.1400  0.0561
 8587SOL    HW132760   4.470   6.544   1.304 -0.1775  0.2431 -0.2256
 8587SOL    HW232761   4.308   6.531   1.289 -0.2771  2.5696 -1.4857
 8588SOL     OW32762   0.742   3.864   4.004  0.7608 -0.2691 -0.0575
 8588SOL    HW132763   0.777   3.853   4.097 -0.5677 -0.1661  0.4638
 8588SOL    HW232764   0.659   3.810   3.993  0.9641 -0.3642 -1.2264
 8589SOL     OW32765   2.636   2.293   2.030 -0.1491 -0.2433  0.0300
 8589SOL    HW132766   2.704   2.259   1.965 -1.1993  0.4414 -1.4541
 8589SOL    HW232767   2.569   2.221   2.048 -1.6071  0.5615 -2.0644
 8590SOL     OW32768   3.240   2.509   6.731  0.0915  0.5290 -0.2805
 8590SOL    HW132769   3.205   2.456   6.654  1.3991 -1.1393  0.2391
 8590SOL    HW232770   3.327   2.551   6.707  1.3789 -1.4314  0.8088
 8591SOL     OW32771   4.454   4.821   6.024 -0.3440 -0.0328 -0.2681
 8591SOL    HW132772   4.476   4.724   6.013 -0.4339 -0.2269  1.2387
 8591SOL    HW232773   4.538   4.875   6.019 -0.1817 -0.2741 -0.1210
 8592SOL     OW32774   2.171   4.808   4.229  0.2276 -0.0594  0.3361
 8592SOL    HW132775   2.164   4.865   4.148 -0.5955  1.1137  1.2154
 8592SOL    HW232776   2.234   4.732   4.211 -0.7967 -0.4497 -1.7400
 8593SOL     OW32777   6.096   3.100   3.549 -0.2502  0.5042 -0.2453
 8593SOL    HW132778   6.188   3.062   3.533 -0.2133  0.2509  0.5448
 8593SOL    HW232779   6.035   3.069   3.476 -0.3563 -1.5647  0.6813
 8594SOL     OW32780   5.692   5.579   0.801 -0.4337 -0.4213 -0.2272
 8594SOL    HW132781   5.657   5.656   0.748 -1.1799 -1.1728 -0.8407
 8594SOL    HW232782   5.625   5.504   0.800  1.3403 -2.0737 -1.8605
 8595SOL     OW32783   0.888   4.962   6.725  0.4703  0.2198 -0.2786
 8595SOL    HW132784   0.938   5.034   6.677  1.4030  1.1410  2.0140
 8595SOL    HW232785   0.952   4.910   6.783 -0.6817 -0.6608  0.2258
 8596SOL     OW32786   3.894   7.178   2.720  0.3362  0.2825  0.2411
 8596SOL    HW132787   3.813   7.119   2.722  0.0653  0.5353 -1.6811
 8596SOL    HW232788   3.960   7.148   2.788 -0.5546 -1.1412  0.4928
 8597SOL     OW32789   3.626   5.427   1.778 -0.1886  0.7587  0.8441
 8597SOL    HW132790   3.626   5.408   1.876  2.0678 -0.8872  0.5670
 8597SOL    HW232791   3.600   5.345   1.728 -0.7271  1.4169  0.0211
 8598SOL     OW32792   0.920   6.676   3.697 -0.3589 -0.3268 -0.0001
 8598SOL    HW132793   0.899   6.751   3.634 -2.3391 -0.4196  0.5133
 8598SOL    HW232794   0.955   6.713   3.783  0.4126 -0.0884 -0.4177
 8599SOL     OW32795   6.514   2.773   3.515 -0.1113 -0.1491  0.1229
 8599SOL    HW132796   6.541   2.712   3.440  0.7285  1.8839 -1.2892
 8599SOL    HW232797   6.529   2.727   3.602 -0.6763 -2.4072 -0.9238
 8600SOL     OW32798   3.426   0.236   6.592  0.1790  0.2185 -0.0086
 8600SOL    HW132799   3.387   0.251   6.683  1.2099  0.6704  0.3587
 8600SOL    HW232800   3.391   0.306   6.529 -1.8373 -1.0752 -0.3797
 8601SOL     OW32801   0.354   1.047   1.843 -0.5978  0.0150  0.0129
 8601SOL    HW132802   0.417   1.068   1.769 -2.5530  0.0971 -1.6449
 8601SOL    HW232803   0.260   1.066   1.815 -1.4757 -0.9944  2.1113
 8602SOL     OW32804   6.247   6.692   4.062 -0.3604  0.2216 -0.3629
 8602SOL    HW132805   6.345   6.679   4.074 -0.0150  2.0876 -0.9844
 8602SOL    HW232806   6.230   6.761   3.992 -2.1362 -0.6929 -0.8750
 8603SOL     OW32807   5.056   5.896   3.671 -0.4210  0.3660  0.4249
 8603SOL    HW132808   5.045   5.995   3.662 -1.0790  0.0674 -2.1772
 8603SOL    HW232809   4.978   5.858   3.720 -0.2641  1.0878  1.2539
 8604SOL     OW32810   6.632   3.686   4.340 -0.6748  0.2776 -0.0017
 8604SOL    HW132811   6.598   3.640   4.422 -1.5860  0.5796 -0.2041
 8604SOL    HW232812   6.589   3.776   4.333 -0.8349  0.1303 -0.9746
 8605SOL     OW32813   1.344   5.186   0.805 -0.1773 -0.2634 -0.4386
 8605SOL    HW132814   1.439   5.216   0.810 -0.2985 -0.3189  3.8603
 8605SOL    HW232815   1.286   5.264   0.778  0.6519  0.8028  0.8246
 8606SOL     OW32816   1.718   4.039   5.980 -0.0773  0.1882  0.1757
 8606SOL    HW132817   1.746   3.949   5.947 -2.4045 -1.6286  2.8843
 8606SOL    HW232818   1.619   4.049   5.969  0.1400  2.3486  0.1033
 8607SOL     OW32819   2.794   4.568   0.247 -0.6106 -0.0492  0.1138
 8607SOL    HW132820   2.867   4.613   0.196 -1.1742  0.9935  0.2186
 8607SOL    HW232821   2.727   4.530   0.184 -0.4902 -0.1341  0.0382
 8608SOL     OW32822   4.405   7.307   5.636 -0.3540  0.7088  0.2836
 8608SOL    HW132823   4.338   7.363   5.588 -0.4870  0.0619 -0.2886
 8608SOL    HW232824   4.486   7.294   5.578 -1.1584 -1.3709 -0.3916
 8609SOL     OW32825   0.762   2.437   1.298  0.2496  0.3893  0.2830
 8609SOL    HW132826   0.710   2.520   1.319  0.9594  0.8108  0.3904
 8609SOL    HW232827   0.837   2.428   1.363  1.5516  0.8912 -1.1190
 8610SOL     OW32828   1.650   0.750   3.598  0.1561  0.3043  0.1984
 8610SOL    HW132829   1.689   0.674   3.650  2.4069  1.5390  0.3695
 8610SOL    HW232830   1.556   0.727   3.572  0.7471 -2.4703  0.3368
 8611SOL     OW32831   1.051   3.637   4.119  0.4194 -0.2101 -0.0346
 8611SOL    HW132832   1.139   3.651   4.165  1.2166  1.3779 -1.9367
 8611SOL    HW232833   1.057   3.675   4.026 -2.7724  1.3099  0.3408
 8612SOL     OW32834   0.014   2.680   2.505  0.0525  0.2669 -0.4314
 8612SOL    HW132835   0.019   2.608   2.437 -1.1952 -0.3050  0.0678
 8612SOL    HW232836  -0.016   2.765   2.461 -0.7171 -0.0905 -0.5959
 8613SOL     OW32837   6.138   0.332   2.069 -0.3733 -0.5437  0.1622
 8613SOL    HW132838   6.175   0.388   1.994  0.0042 -0.4280  0.4340
 8613SOL    HW232839   6.078   0.388   2.125 -0.2935 -0.5101  0.2144
 8614SOL     OW32840   3.879   3.389   6.485  0.1082  0.2964 -0.0990
 8614SOL    HW132841   3.938   3.309   6.485  1.2567  1.0992  1.5945
 8614SOL    HW232842   3.834   3.397   6.574 -1.0051  0.8085 -0.6971
 8615SOL     OW32843   6.087   0.301   1.509  0.1187  0.5115 -0.2445
 8615SOL    HW132844   6.157   0.260   1.567  0.1380 -1.2704 -1.4615
 8615SOL    HW232845   6.130   0.338   1.426 -0.4164 -1.2026 -1.3184
 8616SOL     OW32846   4.094   6.054   7.167 -0.2390  0.4395  0.2286
 8616SOL    HW132847   4.076   6.124   7.236 -0.7081  0.1499  0.4043
 8616SOL    HW232848   4.193   6.044   7.155  0.0467 -2.5869  4.0692
 8617SOL     OW32849   2.131   0.866   3.126  0.8688  0.3921  0.3423
 8617SOL    HW132850   2.203   0.930   3.153  0.3433  0.6856  1.0614
 8617SOL    HW232851   2.093   0.895   3.038 -0.5637  2.1020  1.4857
 8618SOL     OW32852   4.959   6.901   6.705 -0.1078  0.1422  0.4792
 8618SOL    HW132853   4.956   7.001   6.708 -2.2367  0.1122 -0.0812
 8618SOL    HW232854   4.888   6.867   6.644  0.8287 -1.7185  0.3891
 8619SOL     OW32855   0.577   4.479   6.865  0.1826  0.1941 -0.1859
 8619SOL    HW132856   0.480   4.483   6.841  0.8042  0.5333 -2.8397
 8619SOL    HW232857   0.601   4.385   6.890 -0.4192 -0.3188 -1.4736
 8620SOL     OW32858   5.665   1.763   0.519 -0.9430  0.2628 -0.5006
 8620SOL    HW132859   5.724   1.827   0.472 -0.0646  0.4751  0.8518
 8620SOL    HW232860   5.591   1.813   0.565 -2.0921  0.0121 -2.0621
 8621SOL     OW32861   6.580   2.607   3.784  0.3955 -0.4353 -0.0083
 8621SOL    HW132862   6.628   2.582   3.700 -0.9798 -0.7746 -0.6981
 8621SOL    HW232863   6.619   2.691   3.822  1.4100 -0.6128 -0.6502
 8622SOL     OW32864   6.723   7.243   0.287  0.2381  0.4116 -0.1295
 8622SOL    HW132865   6.718   7.167   0.352  0.9150  0.8094  0.3927
 8622SOL    HW232866   6.650   7.309   0.307  0.1735  0.3159 -0.0511
 8623SOL     OW32867   2.498   3.912   1.494 -0.2165  0.0472  1.0603
 8623SOL    HW132868   2.470   3.857   1.415  0.8998  1.6264 -0.4860
 8623SOL    HW232869   2.593   3.892   1.517  0.1147  1.0915  0.6548
 8624SOL     OW32870   5.464   2.864   1.634 -0.7899  0.5753 -0.2963
 8624SOL    HW132871   5.397   2.921   1.682 -1.3026  2.4282 -3.0364
 8624SOL    HW232872   5.424   2.775   1.615 -0.7434 -0.0178  2.2169
 8625SOL     OW32873   2.421   4.037   4.855  0.1477 -0.3261 -0.3281
 8625SOL    HW132874   2.346   3.983   4.816 -0.8232  1.4374 -0.9854
 8625SOL    HW232875   2.505   3.984   4.853 -1.1310 -2.4384  0.6337
 8626SOL     OW32876   2.286   5.095   5.478  0.2434 -0.3236  0.5229
 8626SOL    HW132877   2.273   5.116   5.381  1.2740 -0.7328  0.2898
 8626SOL    HW232878   2.231   5.157   5.533 -1.5019 -1.0452 -0.3685
 8627SOL     OW32879   1.341   6.730   5.450  0.1048  0.4523  0.2124
 8627SOL    HW132880   1.412   6.735   5.379 -0.5502  3.8856 -0.2895
 8627SOL    HW232881   1.378   6.684   5.530  2.1095 -0.0159 -0.9408
 8628SOL     OW32882   5.032   3.595   4.887  0.1697 -0.1101  0.1160
 8628SOL    HW132883   5.119   3.546   4.886 -0.2452 -0.8386 -1.1956
 8628SOL    HW232884   4.969   3.551   4.950  1.3369  1.4980  2.4886
 8629SOL     OW32885   6.901   2.058   6.930  0.2355  0.1314  0.3916
 8629SOL    HW132886   6.948   1.974   6.959 -1.0843 -0.2737  1.4225
 8629SOL    HW232887   6.950   2.099   6.853  1.2926 -1.2055  0.3338
 8630SOL     OW32888   6.470   5.865   2.760  0.4704  0.2007  0.2787
 8630SOL    HW132889   6.461   5.961   2.734 -2.6967 -0.1870 -0.2794
 8630SOL    HW232890   6.383   5.819   2.747  1.4445 -2.3420  2.3124
 8631SOL     OW32891   6.436   4.952   3.475 -0.6237  0.3989 -0.3601
 8631SOL    HW132892   6.523   4.998   3.458  0.1138 -1.1072 -0.7441
 8631SOL    HW232893   6.373   4.971   3.400 -0.5133  1.2080 -0.2525
 8632SOL     OW32894   3.020   5.111   5.880  0.2147  0.1184 -0.2450
 8632SOL    HW132895   3.018   5.121   5.980  0.7690  1.3453 -0.3508
 8632SOL    HW232896   3.114   5.109   5.848  0.0273  0.8551 -0.8533
 8633SOL     OW32897   4.198   1.648   4.165  0.2670  0.0987 -0.4475
 8633SOL    HW132898   4.203   1.580   4.091 -1.3915  0.1301 -0.5969
 8633SOL    HW232899   4.265   1.720   4.148  0.5686 -0.3962 -1.4166
 8634SOL     OW32900   0.969   6.102   4.835  0.0150  0.1984 -0.3569
 8634SOL    HW132901   1.065   6.109   4.809  0.0750  0.2444 -0.1271
 8634SOL    HW232902   0.962   6.100   4.935 -0.2467  0.5638 -0.3655
 8635SOL     OW32903   7.241   3.232   3.662 -0.8602 -0.2857  0.0175
 8635SOL    HW132904   7.227   3.210   3.565  2.5744  0.1599 -0.6553
 8635SOL    HW232905   7.291   3.319   3.669 -1.0461 -0.3296  2.1983
 8636SOL     OW32906   4.185   3.285   1.561  0.4510  0.0379 -0.2865
 8636SOL    HW132907   4.151   3.205   1.611  1.2902 -0.4459 -0.4843
 8636SOL    HW232908   4.128   3.365   1.583 -0.3875 -0.6108 -0.0898
 8637SOL     OW32909   4.751   0.124   1.538  0.1011 -0.2148 -0.2209
 8637SOL    HW132910   4.845   0.116   1.572  0.2013 -1.2183 -0.7248
 8637SOL    HW232911   4.752   0.166   1.447  0.0353  0.0320 -0.1088
 8638SOL     OW32912   5.797   4.928   4.688 -0.6232  0.2251 -0.0885
 8638SOL    HW132913   5.750   4.874   4.618  1.1344 -1.3896 -0.0782
 8638SOL    HW232914   5.821   5.017   4.650 -1.5123  0.1461 -0.8663
 8639SOL     OW32915   0.955   0.669   6.260 -0.2774  0.2569  0.1537
 8639SOL    HW132916   0.976   0.740   6.193 -0.9240  1.0660  0.8027
 8639SOL    HW232917   0.864   0.631   6.241 -0.0964 -0.1285  0.0451
 8640SOL     OW32918   6.527   4.899   2.680 -0.1631 -0.0370  0.2715
 8640SOL    HW132919   6.507   4.901   2.582  0.4628  2.0832  0.1630
 8640SOL    HW232920   6.538   4.804   2.710 -2.4318 -0.8242 -1.2678
 8641SOL     OW32921   6.373   3.773   1.745  0.0958  0.2928  0.3306
 8641SOL    HW132922   6.456   3.727   1.712  0.4251  2.5106 -2.1182
 8641SOL    HW232923   6.292   3.725   1.712  0.3204 -2.3160  3.3459
 8642SOL     OW32924   2.518   5.682   1.143  0.4517 -0.5102  0.0170
 8642SOL    HW132925   2.560   5.645   1.226 -0.6165 -1.1770  0.2591
 8642SOL    HW232926   2.501   5.780   1.155 -2.4932 -1.1795  1.7508
 8643SOL     OW32927   6.115   4.620   4.849 -0.1923  0.1427 -0.3227
 8643SOL    HW132928   6.070   4.710   4.852 -0.2421  0.1035  0.1980
 8643SOL    HW232929   6.118   4.588   4.755 -2.2509 -0.3392 -0.2514
 8644SOL     OW32930   6.206   4.454   2.916 -0.0872  0.2915  0.4099
 8644SOL    HW132931   6.138   4.471   2.846  0.9196  0.9337 -0.4298
 8644SOL    HW232932   6.204   4.358   2.943  0.0760 -0.1412 -1.1023
 8645SOL     OW32933   5.670   1.039   1.800 -0.4622  0.0350 -0.2503
 8645SOL    HW132934   5.600   0.968   1.811  0.9275 -1.4264 -0.6049
 8645SOL    HW232935   5.629   1.119   1.757 -1.9158 -0.8047 -0.4887
 8646SOL     OW32936   5.180   0.041   3.505  0.1592  0.1921 -0.1463
 8646SOL    HW132937   5.179  -0.053   3.473  0.5866 -0.1636  0.8830
 8646SOL    HW232938   5.086   0.075   3.511  0.0075 -0.1535 -0.5401
 8647SOL     OW32939   2.566   6.041   6.967  0.1480 -0.3556 -0.9758
 8647SOL    HW132940   2.624   6.014   7.044  1.3567  2.2426 -0.9345
 8647SOL    HW232941   2.470   6.022   6.990  0.1610  3.1269  2.4698
 8648SOL     OW32942   5.050   7.017   0.017 -0.2458 -0.4348  0.4802
 8648SOL    HW132943   5.001   7.067  -0.054  0.9329  0.7111  0.4640
 8648SOL    HW232944   4.988   6.997   0.093 -1.3687 -1.1872 -0.6137
 8649SOL     OW32945   0.342   5.588   3.820  0.7441 -0.2369  0.2696
 8649SOL    HW132946   0.295   5.653   3.761  1.7701  1.1303  0.9420
 8649SOL    HW232947   0.308   5.496   3.801 -1.0849  0.5337 -0.3338
 8650SOL     OW32948   0.734   0.120   7.262  0.1274 -0.0908 -0.1827
 8650SOL    HW132949   0.779   0.080   7.182  0.5010 -1.4426  0.6824
 8650SOL    HW232950   0.677   0.197   7.234  3.9337  2.5137 -1.1669
 8651SOL     OW32951   1.145   0.058   7.082  0.1278 -0.2978  0.3576
 8651SOL    HW132952   1.216   0.129   7.082 -0.0155 -0.1416 -1.2378
 8651SOL    HW232953   1.107   0.050   7.175  1.0150  0.8281  0.8411
 8652SOL     OW32954   5.345   5.439   2.119  0.0461 -0.6820 -0.2253
 8652SOL    HW132955   5.288   5.366   2.079 -2.4925 -0.6692  3.1985
 8652SOL    HW232956   5.304   5.528   2.099  0.4576 -0.4833 -0.1903
 8653SOL     OW32957   1.013   3.396   4.288  0.2783 -0.0187 -0.1489
 8653SOL    HW132958   0.914   3.386   4.303  0.5519 -0.3230  1.5561
 8653SOL    HW232959   1.029   3.464   4.217 -1.1480  0.5265  0.0246
 8654SOL     OW32960   4.719   6.843   5.241 -0.1089 -0.1466  0.6929
 8654SOL    HW132961   4.679   6.934   5.254  0.2288 -0.1756  1.9997
 8654SOL    HW232962   4.759   6.812   5.327 -0.3555 -1.5993  0.2848
 8655SOL     OW32963   3.556   4.161   3.424  0.3943  0.3852  0.5436
 8655SOL    HW132964   3.588   4.068   3.445 -1.0537 -0.4259 -0.7124
 8655SOL    HW232965   3.468   4.176   3.468 -1.2020 -0.2329 -2.3358
 8656SOL     OW32966   0.863   2.048   7.105  0.3741  0.4265 -0.0770
 8656SOL    HW132967   0.901   1.956   7.092  2.7518  1.3912 -0.1316
 8656SOL    HW232968   0.887   2.081   7.197 -2.5592  0.0706  0.8906
 8657SOL     OW32969   7.029   4.841   7.105 -0.2718 -0.0170  1.1353
 8657SOL    HW132970   7.028   4.900   7.024 -1.6310  1.9070  2.5169
 8657SOL    HW232971   7.100   4.874   7.167 -0.4160 -0.4135  1.5032
 8658SOL     OW32972   6.086   6.664   6.275 -0.2135  0.5747  0.1584
 8658SOL    HW132973   6.061   6.716   6.356 -0.6576 -0.2168  0.5347
 8658SOL    HW232974   6.134   6.580   6.302  0.5901  0.8335 -0.4433
 8659SOL     OW32975   4.296   2.483   0.930 -0.7035  0.3208 -0.3588
 8659SOL    HW132976   4.246   2.501   1.015  1.5112 -1.1929  1.3333
 8659SOL    HW232977   4.374   2.545   0.923  1.3639 -2.1031  0.6904
 8660SOL     OW32978   1.032   4.270   0.862  0.5611  0.3592 -0.1567
 8660SOL    HW132979   1.010   4.339   0.930 -1.1241 -0.2983  0.0024
 8660SOL    HW232980   1.053   4.314   0.775 -1.2717  1.0643 -0.2674
 8661SOL     OW32981   2.145   5.078   7.125  0.3166  0.4693  0.1991
 8661SOL    HW132982   2.235   5.045   7.155  1.7931  1.9732 -2.4629
 8661SOL    HW232983   2.101   5.008   7.069  0.9927  0.7840 -0.7282
 8662SOL     OW32984   6.502   5.449   3.117  0.0883 -0.1758  0.1234
 8662SOL    HW132985   6.509   5.351   3.097 -0.8498 -0.2866  0.2986
 8662SOL    HW232986   6.496   5.462   3.216 -1.4167 -0.0578  0.0246
 8663SOL     OW32987   4.670   4.189   6.113 -0.7405  0.3276  0.3724
 8663SOL    HW132988   4.671   4.238   6.201  0.8123 -0.1250  0.6270
 8663SOL    HW232989   4.575   4.172   6.085 -1.2595 -0.5889  2.5680
 8664SOL     OW32990   6.024   4.270   0.073  0.2162  0.2695 -0.5880
 8664SOL    HW132991   6.088   4.194   0.086  0.4064  0.5207 -0.0226
 8664SOL    HW232992   6.033   4.305  -0.020  1.8789  1.1724 -0.1163
 8665SOL     OW32993   4.751   1.474   2.156 -0.6625 -0.1933  0.0871
 8665SOL    HW132994   4.687   1.443   2.226  1.1737 -2.0404  0.9918
 8665SOL    HW232995   4.772   1.571   2.170 -0.8950 -0.3587  1.6243
 8666SOL     OW32996   5.228   4.201   4.227 -0.0793  0.3097  0.2097
 8666SOL    HW132997   5.287   4.180   4.149 -0.8204 -2.1215  0.2498
 8666SOL    HW232998   5.134   4.171   4.206 -0.5029  0.6271  1.6162
 8667SOL     OW32999   1.307   1.100   2.653  0.2136  0.2754  0.0181
 8667SOL    HW133000   1.305   1.198   2.635  0.7483  0.1059 -0.9980
 8667SOL    HW233001   1.373   1.080   2.726 -1.0854  0.8399  1.3654
 8668SOL     OW33002   2.514   4.737   0.508  0.0706  0.2187  0.0990
 8668SOL    HW133003   2.537   4.794   0.430  0.4739 -0.6157 -0.3974
 8668SOL    HW233004   2.490   4.645   0.477  0.5824 -0.2223  0.9699
 8669SOL     OW33005   1.764   4.219   2.745  0.4232 -0.5672 -0.0489
 8669SOL    HW133006   1.785   4.221   2.842  1.5378  1.5827 -0.3128
 8669SOL    HW233007   1.797   4.133   2.705  5.2303  1.0085  0.3232
 8670SOL     OW33008   6.062   3.262   1.445 -0.0062  0.0757 -0.2515
 8670SOL    HW133009   6.002   3.204   1.500  0.2007 -0.1929 -0.3089
 8670SOL    HW233010   6.048   3.358   1.471  1.0884 -0.1536  1.2521
 8671SOL     OW33011   7.151   2.282   1.494 -0.0132 -0.4639 -0.7786
 8671SOL    HW133012   7.195   2.234   1.418 -0.0903 -0.3659 -0.8860
 8671SOL    HW233013   7.180   2.242   1.580  0.0739 -0.5773 -0.8606
 8672SOL     OW33014   6.931   1.891   4.916  0.1178  0.3855  0.4886
 8672SOL    HW133015   6.872   1.971   4.913  0.1336  0.3627 -0.6596
 8672SOL    HW233016   6.925   1.848   5.006 -2.9926 -0.6550 -0.1653
 8673SOL     OW33017   6.141   2.790   6.940 -0.4800 -0.0737  0.7236
 8673SOL    HW133018   6.082   2.798   7.020 -0.1202  0.6700  0.9145
 8673SOL    HW233019   6.234   2.766   6.969  0.6019  4.0603  0.8540
 8674SOL     OW33020   6.925   3.482   3.986  0.7866 -0.5241 -0.0495
 8674SOL    HW133021   6.896   3.459   4.079  0.5967  0.0622  0.0410
 8674SOL    HW233022   6.971   3.404   3.945  2.7978 -0.1029  1.3271
 8675SOL     OW33023   0.412   2.622   7.107 -0.1590  0.4949  0.2508
 8675SOL    HW133024   0.511   2.629   7.099 -0.1953  0.0882 -0.6087
 8675SOL    HW233025   0.382   2.663   7.193  0.7367  0.7635  0.4336
 8676SOL     OW33026   2.505   5.678   0.856 -0.3915 -0.6796  0.2271
 8676SOL    HW133027   2.510   5.637   0.946  0.4319  0.5011  0.7374
 8676SOL    HW233028   2.596   5.710   0.829 -1.3789  2.7744  0.8032
 8677SOL     OW33029   5.883   6.402   4.048 -0.5031  0.2141 -0.1481
 8677SOL    HW133030   5.841   6.317   4.016 -1.0783  0.7665 -0.8693
 8677SOL    HW233031   5.969   6.417   3.999 -0.0936 -0.2491  0.4087
 8678SOL     OW33032   0.106   5.189   0.750  0.0010  0.2461  0.0687
 8678SOL    HW133033   0.164   5.270   0.760  0.6296 -0.3214  1.0536
 8678SOL    HW233034   0.083   5.154   0.841  1.4589 -1.9256 -0.3800
 8679SOL     OW33035   4.567   0.822   0.040  0.0497  0.0986  0.3129
 8679SOL    HW133036   4.637   0.884   0.076 -0.8074  0.9622  0.4952
 8679SOL    HW233037   4.604   0.773  -0.039  1.0099  0.2137  0.6820
 8680SOL     OW33038   1.080   2.766   3.465 -0.1371 -0.0408 -0.0394
 8680SOL    HW133039   1.074   2.666   3.458  0.9360 -0.1448  0.4112
 8680SOL    HW233040   1.124   2.802   3.383 -0.3280  0.0432 -0.1048
 8681SOL     OW33041   1.188   4.843   3.240  0.1291 -0.1013  0.1940
 8681SOL    HW133042   1.228   4.753   3.229  2.1614  0.9215 -1.2374
 8681SOL    HW233043   1.199   4.874   3.334  1.1699 -0.5475  0.2203
 8682SOL     OW33044   2.363   7.005   4.637 -0.3620  0.5580 -0.2289
 8682SOL    HW133045   2.359   7.075   4.708 -0.2167  1.3093 -0.9470
 8682SOL    HW233046   2.281   6.947   4.642 -0.0298  0.1845  0.9645
 8683SOL     OW33047   7.239   0.583   2.112  0.1143 -0.1961  0.4117
 8683SOL    HW133048   7.316   0.547   2.165  0.4045 -1.5705 -0.8974
 8683SOL    HW233049   7.171   0.511   2.099 -1.9801  1.3338  2.5627
 8684SOL     OW33050   5.343   2.970   7.260  0.5231  0.3853 -0.4678
 8684SOL    HW133051   5.303   3.002   7.174 -1.3824 -2.9305 -0.9252
 8684SOL    HW233052   5.431   2.925   7.241 -0.2683 -1.0507 -0.8646
 8685SOL     OW33053   2.332   4.896   0.182  0.2251  0.0178  0.1503
 8685SOL    HW133054   2.341   4.798   0.198 -0.4311  0.0344  0.6644
 8685SOL    HW233055   2.420   4.934   0.152  0.1302 -0.9550 -1.3785
 8686SOL     OW33056   1.613   1.384   0.604  0.0166  0.2166  0.2942
 8686SOL    HW133057   1.587   1.295   0.566  0.5868  1.0981 -2.2161
 8686SOL    HW233058   1.681   1.370   0.676  0.6512 -1.3304 -0.5762
 8687SOL     OW33059   6.072   3.666   0.844 -0.9658 -0.0968  0.5622
 8687SOL    HW133060   6.055   3.658   0.746 -2.7171  0.9228  0.7591
 8687SOL    HW233061   6.168   3.688   0.860 -0.5097 -1.0043 -0.8819
 8688SOL     OW33062   4.184   0.792   2.514 -0.0184  0.1044 -0.2423
 8688SOL    HW133063   4.192   0.816   2.417 -0.2062 -0.2169 -0.3374
 8688SOL    HW233064   4.139   0.866   2.563  0.1475  0.3014 -0.3860
 8689SOL     OW33065   2.702   0.083   0.256  0.2925  0.2887  0.1391
 8689SOL    HW133066   2.678   0.086   0.353  0.2858 -0.3065  0.1594
 8689SOL    HW233067   2.783   0.025   0.244  0.3842  0.4822 -0.1939
 8690SOL     OW33068   2.075   6.603   5.819  0.5318 -0.3850  0.0118
 8690SOL    HW133069   1.977   6.584   5.827  0.3397 -0.2318 -1.8177
 8690SOL    HW233070   2.124   6.554   5.891 -0.9002 -0.2988  1.0681
 8691SOL     OW33071   2.672   3.473   5.759  0.3131  0.1585  0.1029
 8691SOL    HW133072   2.575   3.456   5.776  0.1969  1.1351  0.4479
 8691SOL    HW233073   2.705   3.410   5.689 -0.5292 -0.2964  0.1114
 8692SOL     OW33074   1.419   4.072   0.582  0.0018  0.2597 -0.2983
 8692SOL    HW133075   1.387   4.159   0.621  0.8041  0.5422 -0.2575
 8692SOL    HW233076   1.505   4.088   0.533 -0.0573 -0.4408 -0.6246
 8693SOL     OW33077   0.277   3.695   1.362  0.0494  1.2168  0.0174
 8693SOL    HW133078   0.313   3.737   1.279  0.9569 -0.9560 -0.7233
 8693SOL    HW233079   0.351   3.649   1.411 -0.4595  2.5243  2.0854
 8694SOL     OW33080   5.414   0.214   4.624 -0.0340 -0.1450 -0.0030
 8694SOL    HW133081   5.323   0.242   4.655  0.2006  0.4827  0.1205
 8694SOL    HW233082   5.476   0.292   4.626 -0.1345  0.0401 -2.5755
 8695SOL     OW33083   6.344   6.341   7.308  0.3768  0.3624  0.0537
 8695SOL    HW133084   6.310   6.334   7.214 -0.1810 -0.2967  0.2992
 8695SOL    HW233085   6.325   6.256   7.357  0.8609  0.6189  0.7043
 8696SOL     OW33086   1.318   0.788   1.154 -0.2508  0.2607 -0.4368
 8696SOL    HW133087   1.300   0.808   1.251  0.5693  3.1788 -0.8527
 8696SOL    HW233088   1.342   0.692   1.145  0.1215  0.0376  2.3368
 8697SOL     OW33089   4.633   5.114   3.473  0.5848  0.0606 -0.2937
 8697SOL    HW133090   4.677   5.200   3.497  0.2290  0.2863 -0.4439
 8697SOL    HW233091   4.534   5.123   3.485  0.6082 -0.5476  0.3708
 8698SOL     OW33092   2.006   4.187   7.195  0.0003 -0.1189  0.5121
 8698SOL    HW133093   1.996   4.088   7.205 -0.9041 -0.2284 -1.2146
 8698SOL    HW233094   1.920   4.226   7.161  0.0550  1.3977  2.0143
 8699SOL     OW33095   5.916   3.511   2.090  0.0607 -0.6590 -0.2397
 8699SOL    HW133096   5.837   3.537   2.034 -1.4424 -1.0596  1.6225
 8699SOL    HW233097   5.917   3.568   2.173  1.0008 -1.5336  0.3541
 8700SOL     OW33098   4.729   1.002   0.142  0.3467 -0.1325 -0.0692
 8700SOL    HW133099   4.754   1.074   0.078  0.6353 -1.4568 -1.4872
 8700SOL    HW233100   4.648   1.029   0.194  0.0553  0.9138 -1.0727
 8701SOL     OW33101   1.983   3.453   5.795  0.5280 -0.6211 -0.5456
 8701SOL    HW133102   2.047   3.444   5.719  0.5619 -1.0236 -0.4738
 8701SOL    HW233103   1.968   3.363   5.836  0.3661 -0.4358 -0.1968
 8702SOL     OW33104   1.505   0.055   0.359 -1.0377  0.1776 -0.2945
 8702SOL    HW133105   1.437   0.111   0.312 -0.5920  0.5858 -0.4429
 8702SOL    HW233106   1.577   0.113   0.398 -0.3463 -0.3208 -0.8221
 8703SOL     OW33107   2.261   4.203   0.828  0.3793 -0.3403  0.2976
 8703SOL    HW133108   2.216   4.266   0.891 -1.2137  0.4349 -1.5509
 8703SOL    HW233109   2.340   4.248   0.786 -0.8938  0.5757 -1.1998
 8704SOL     OW33110   1.760   3.999   2.013  0.1187 -0.5077  0.2137
 8704SOL    HW133111   1.721   4.065   1.949  0.4436 -0.2841  0.2415
 8704SOL    HW233112   1.818   3.934   1.964  0.0455 -0.5828  0.2268
 8705SOL     OW33113   2.000   2.758   5.699 -0.5890  0.0718  0.0034
 8705SOL    HW133114   1.990   2.757   5.798 -2.0079  0.8885 -0.1145
 8705SOL    HW233115   1.950   2.836   5.661 -0.3642 -0.4364 -1.3845
 8706SOL     OW33116   1.452   4.527   5.065  0.2452 -0.0502  0.2473
 8706SOL    HW133117   1.365   4.534   5.114 -0.3902  0.2440 -0.9160
 8706SOL    HW233118   1.510   4.604   5.088  0.0031  0.0104  0.6538
 8707SOL     OW33119   4.409   1.503   4.406 -0.1311  0.4658  0.3171
 8707SOL    HW133120   4.342   1.492   4.479 -1.7467  0.6136 -1.1259
 8707SOL    HW233121   4.364   1.539   4.325  1.8397  1.2483 -0.4454
 8708SOL     OW33122   3.605   4.180   4.447  0.2119  0.3491  0.0204
 8708SOL    HW133123   3.557   4.159   4.533  0.9518 -2.0023 -0.1046
 8708SOL    HW233124   3.620   4.279   4.441 -1.7829  0.7864  1.5567
 8709SOL     OW33125   5.045   7.240   5.028 -0.2572 -0.0865  0.3244
 8709SOL    HW133126   5.057   7.181   4.948  1.5700  0.0651  0.4645
 8709SOL    HW233127   5.021   7.185   5.107 -0.7665 -0.3859 -0.0347
 8710SOL     OW33128   6.610   5.279   5.539 -0.6968 -0.2586  0.1650
 8710SOL    HW133129   6.553   5.334   5.599 -0.7984 -0.9193  0.6727
 8710SOL    HW233130   6.558   5.252   5.458 -0.5710  0.5967 -0.2148
 8711SOL     OW33131   4.224   4.579   1.836  0.3429 -0.3655 -0.5300
 8711SOL    HW133132   4.270   4.570   1.925 -1.6425 -1.8564  0.3801
 8711SOL    HW233133   4.193   4.673   1.825  0.3797 -0.2274  0.4666
 8712SOL     OW33134   4.569   3.546   5.229  0.1176 -0.0420 -0.1406
 8712SOL    HW133135   4.668   3.530   5.230 -0.1413 -1.6714  1.5366
 8712SOL    HW233136   4.548   3.629   5.279  0.4948 -0.6610  1.0555
 8713SOL     OW33137   0.160   2.652   2.722 -0.1014  0.1090 -0.1715
 8713SOL    HW133138   0.111   2.665   2.636  1.5159  1.7542 -0.8693
 8713SOL    HW233139   0.206   2.737   2.748 -1.1071 -0.1634  2.6764
 8714SOL     OW33140   2.916   2.086   0.729 -0.1108 -0.1605  0.0504
 8714SOL    HW133141   2.858   2.151   0.777  0.7482 -0.6908  1.8574
 8714SOL    HW233142   2.985   2.135   0.676  0.6357  0.4214  1.5253
 8715SOL     OW33143   7.340   2.799   0.094 -0.3324  0.2473  0.1493
 8715SOL    HW133144   7.333   2.778  -0.004 -1.0364  2.4701 -0.3121
 8715SOL    HW233145   7.251   2.833   0.127  0.1238  0.2679  1.3617
 8716SOL     OW33146   0.575   3.940   5.883  0.1214  0.3892  0.0422
 8716SOL    HW133147   0.590   3.842   5.889  0.3826  0.4053 -0.3406
 8716SOL    HW233148   0.488   3.964   5.927  0.4183  0.0850  0.8135
 8717SOL     OW33149   6.730   7.228   2.670  0.6569 -0.4689  0.1264
 8717SOL    HW133150   6.716   7.136   2.708 -0.2696  0.1984  1.4803
 8717SOL    HW233151   6.685   7.234   2.581  2.1111 -1.8068 -0.7215
 8718SOL     OW33152   6.219   0.670   5.032 -0.1504  0.1977 -0.2455
 8718SOL    HW133153   6.155   0.693   4.959  1.2750  2.1178 -0.9166
 8718SOL    HW233154   6.312   0.673   4.997  0.4312 -0.9611  1.1364
 8719SOL     OW33155   2.602   2.573   4.109  0.2401  0.1106  0.0045
 8719SOL    HW133156   2.541   2.530   4.043 -1.7262 -0.2250  1.9704
 8719SOL    HW233157   2.572   2.667   4.126  1.1983  0.4522 -0.1580
 8720SOL     OW33158   6.152   7.064   2.490 -0.3947 -0.1132 -0.2250
 8720SOL    HW133159   6.165   7.141   2.428 -0.6317  0.6051  0.5985
 8720SOL    HW233160   6.106   6.990   2.442 -0.1323  0.2449 -1.0361
 8721SOL     OW33161   2.808   2.974   4.176  0.3957  0.3932  0.3625
 8721SOL    HW133162   2.834   2.952   4.270  1.8337  0.9761  0.1196
 8721SOL    HW233163   2.866   2.923   4.113 -0.1331  0.4922 -0.2015
 8722SOL     OW33164   2.795   7.110   2.275  0.4663 -0.1257 -0.7538
 8722SOL    HW133165   2.748   7.162   2.204 -2.0199  1.2110  1.7653
 8722SOL    HW233166   2.735   7.038   2.310  1.2517 -0.1065  0.6877
 8723SOL     OW33167   7.309   2.932   2.745  0.7424 -0.1412 -0.4177
 8723SOL    HW133168   7.404   2.902   2.750  1.1461  0.7345 -2.3462
 8723SOL    HW233169   7.289   2.993   2.822  1.1098 -2.0026  1.1702
 8724SOL     OW33170   2.112   6.745   5.580  0.2635  0.5094 -0.0005
 8724SOL    HW133171   2.209   6.723   5.577  0.1370 -0.0554 -0.0328
 8724SOL    HW233172   2.069   6.698   5.658  0.0156  0.7434  0.0060
 8725SOL     OW33173   5.995   7.338   4.641 -0.4865 -0.2960  0.4626
 8725SOL    HW133174   5.974   7.379   4.552 -0.4307 -1.5068 -0.1249
 8725SOL    HW233175   6.042   7.251   4.627 -1.3765 -0.9852  1.6757
 8726SOL     OW33176   5.067   3.635   3.921 -0.5143  0.0907 -0.3458
 8726SOL    HW133177   4.979   3.669   3.954 -1.3631 -3.1563  0.9627
 8726SOL    HW233178   5.057   3.541   3.889  2.5179 -0.3950 -0.0496
 8727SOL     OW33179   1.842   3.157   6.376 -0.4337  0.6406 -0.4534
 8727SOL    HW133180   1.896   3.241   6.389 -1.1138  1.1394 -0.8464
 8727SOL    HW233181   1.843   3.132   6.279  0.3589 -0.2070 -0.2294
 8728SOL     OW33182   1.218   4.910   3.791  0.2551 -0.4382 -0.4862
 8728SOL    HW133183   1.247   4.838   3.729 -1.8080 -1.1644 -0.6650
 8728SOL    HW233184   1.153   4.970   3.744 -1.0362 -0.7781  0.8113
 8729SOL     OW33185   6.187   3.671   2.578  0.0342 -0.2927 -0.5060
 8729SOL    HW133186   6.207   3.665   2.480  1.4953  3.0679 -0.4728
 8729SOL    HW233187   6.214   3.761   2.612 -2.2514 -0.7283  2.6101
 8730SOL     OW33188   2.924   1.936   1.852 -0.0490 -0.8621  0.4802
 8730SOL    HW133189   2.843   1.990   1.873 -1.0026 -2.4810  0.9936
 8730SOL    HW233190   2.900   1.839   1.845  0.9270 -0.9262 -4.0154
 8731SOL     OW33191   3.658   0.613   0.292  0.4707  0.4649 -0.1592
 8731SOL    HW133192   3.733   0.547   0.298  0.4494  0.5001  0.4929
 8731SOL    HW233193   3.582   0.582   0.349 -0.1415  0.2632 -1.0663
 8732SOL     OW33194   1.614   4.880   1.819  0.6171  0.0016  0.3853
 8732SOL    HW133195   1.704   4.872   1.861  0.7195  1.6979  0.5422
 8732SOL    HW233196   1.622   4.871   1.719  1.0938  0.9837  0.3265
 8733SOL     OW33197   3.825   0.493   6.482  0.5474  0.2924  0.2666
 8733SOL    HW133198   3.750   0.437   6.518  1.1757 -0.8850 -0.2491
 8733SOL    HW233199   3.910   0.469   6.529  0.9162  0.4667 -0.3145
 8734SOL     OW33200   4.677   5.204   1.725 -0.0635 -0.2763 -0.1995
 8734SOL    HW133201   4.740   5.214   1.648  1.6597  1.5781  1.4005
 8734SOL    HW233202   4.630   5.290   1.741 -1.4773 -1.0582 -0.0539
 8735SOL     OW33203   4.908   0.990   3.719 -0.3824  0.5389  0.2884
 8735SOL    HW133204   4.976   1.061   3.736 -0.8645  0.7500  1.3932
 8735SOL    HW233205   4.941   0.903   3.758  0.1129  0.1972 -0.8744
 8736SOL     OW33206   0.544   3.725   0.284  0.3726  0.2045  0.4085
 8736SOL    HW133207   0.615   3.782   0.326  0.2546 -1.2784  2.7158
 8736SOL    HW233208   0.463   3.725   0.342 -0.5347 -0.3001 -0.8468
 8737SOL     OW33209   5.082   6.292   7.343  0.1530  0.4091  0.2514
 8737SOL    HW133210   5.047   6.328   7.429  1.2750  0.5266  0.6662
 8737SOL    HW233211   5.007   6.251   7.291 -0.3348 -0.7574  1.8259
 8738SOL     OW33212   1.553   3.013   2.436  0.3601 -0.1319  0.2134
 8738SOL    HW133213   1.575   3.105   2.469 -1.2242  0.6733 -0.9162
 8738SOL    HW233214   1.478   2.975   2.491  1.4490 -1.0368  1.1065
 8739SOL     OW33215   3.235   2.474   5.526  0.0034 -0.3654  0.0983
 8739SOL    HW133216   3.274   2.535   5.457 -1.0113  0.5894  0.3459
 8739SOL    HW233217   3.299   2.464   5.602 -0.6551  2.1115  1.0374
 8740SOL     OW33218   7.172   6.758   0.979 -0.1544  0.3800 -0.7608
 8740SOL    HW133219   7.236   6.787   1.050 -0.4856 -1.7155  0.4585
 8740SOL    HW233220   7.190   6.807   0.894  2.8371  0.0525 -0.3468
 8741SOL     OW33221   5.883   2.974   2.627 -0.7905 -0.6811  0.2037
 8741SOL    HW133222   5.892   2.896   2.689  2.4794 -1.0234 -0.5893
 8741SOL    HW233223   5.876   2.941   2.532 -1.7097 -0.0616  0.0500
 8742SOL     OW33224   2.160   6.177   7.316  0.4228  0.1327  0.3519
 8742SOL    HW133225   2.237   6.213   7.263 -0.0393 -1.4085 -1.4231
 8742SOL    HW233226   2.192   6.107   7.379  0.7953  1.1411  1.3090
 8743SOL     OW33227   6.850   1.942   5.956  0.5263  0.7042  0.0328
 8743SOL    HW133228   6.829   1.921   6.051  2.3372  0.1853  0.3435
 8743SOL    HW233229   6.840   2.040   5.940  1.2521  0.9534  1.0415
 8744SOL     OW33230   2.561   2.622   5.666 -0.4773 -0.1116 -0.2233
 8744SOL    HW133231   2.503   2.543   5.688  0.1676 -0.7365 -0.7491
 8744SOL    HW233232   2.657   2.594   5.670 -0.0817  1.4650  2.9650
 8745SOL     OW33233   3.775   3.617   2.311  0.4827  0.4540  0.2302
 8745SOL    HW133234   3.711   3.627   2.387 -0.0377 -0.3078 -0.0914
 8745SOL    HW233235   3.724   3.588   2.229  1.2921 -0.5331  0.0684
 8746SOL     OW33236   4.778   2.589   3.407 -0.4304 -0.0009 -0.5369
 8746SOL    HW133237   4.757   2.647   3.486 -1.2101 -0.1202 -0.6549
 8746SOL    HW233238   4.711   2.607   3.334 -1.7774 -2.3361  0.0798
 8747SOL     OW33239   2.780   0.348   1.413 -0.0967 -0.0247  0.2474
 8747SOL    HW133240   2.880   0.353   1.401 -0.1944 -0.8621 -1.0280
 8747SOL    HW233241   2.760   0.311   1.503  0.7374  0.6643  0.7345
 8748SOL     OW33242   5.110   5.782   3.390 -0.3593 -0.1376  0.8719
 8748SOL    HW133243   5.068   5.698   3.355  0.9525 -0.1745 -0.6689
 8748SOL    HW233244   5.078   5.799   3.483 -0.6191 -2.3636  1.2178
 8749SOL     OW33245   3.463   7.189   2.046  0.3269 -0.4542  0.0263
 8749SOL    HW133246   3.502   7.280   2.057  0.3243 -0.4904  0.3540
 8749SOL    HW233247   3.467   7.162   1.950 -1.1736  0.5656 -0.3497
 8750SOL     OW33248   0.773   3.816   5.448 -0.1808  0.0398 -0.3840
 8750SOL    HW133249   0.747   3.779   5.359 -0.4073  0.0273 -0.3133
 8750SOL    HW233250   0.790   3.915   5.439  0.0138 -0.0041 -0.4865
 8751SOL     OW33251   6.549   3.903   6.365 -0.7453 -0.4038  0.4107
 8751SOL    HW133252   6.621   3.905   6.295  0.0760  1.5429  1.2606
 8751SOL    HW233253   6.490   3.824   6.350 -0.1715 -0.4050 -2.0702
 8752SOL     OW33254   3.902   3.341   5.101 -0.1098  0.1293  0.2973
 8752SOL    HW133255   3.937   3.419   5.153  3.7859 -1.3003 -0.0149
 8752SOL    HW233256   3.919   3.355   5.004 -0.0524 -0.7979  0.1709
 8753SOL     OW33257   1.564   2.000   5.185 -0.4489  0.3711 -0.1652
 8753SOL    HW133258   1.557   2.013   5.086 -1.5688  1.6505  0.0724
 8753SOL    HW233259   1.646   2.047   5.219 -0.6181  0.7873 -0.3348
 8754SOL     OW33260   0.848   6.898   3.561 -0.3982 -0.1361 -0.1467
 8754SOL    HW133261   0.928   6.956   3.547 -0.1360 -0.1613  1.2372
 8754SOL    HW233262   0.767   6.955   3.573 -0.2180 -0.0562  0.7278
 8755SOL     OW33263   2.464   7.086   4.398 -0.4523 -0.1539 -0.1737
 8755SOL    HW133264   2.530   7.161   4.395  0.0203 -0.5340  0.4708
 8755SOL    HW233265   2.455   7.053   4.492  0.2392 -1.6919 -0.6209
 8756SOL     OW33266   0.422   2.168   6.984 -0.0641 -0.1317 -0.5615
 8756SOL    HW133267   0.514   2.174   6.946 -0.0416  1.1513 -0.3277
 8756SOL    HW233268   0.427   2.159   7.083 -0.2013  2.1667 -0.3123
 8757SOL     OW33269   4.170   3.456   2.699 -0.0925 -0.2414  0.0091
 8757SOL    HW133270   4.248   3.503   2.741  0.2003 -0.3929 -0.3601
 8757SOL    HW233271   4.085   3.499   2.728 -0.0177 -1.5954  2.3698
 8758SOL     OW33272   4.237   4.656   5.626 -0.0021 -0.0211 -0.2849
 8758SOL    HW133273   4.281   4.569   5.645 -0.5483 -0.5690 -1.4732
 8758SOL    HW233274   4.290   4.707   5.559 -1.4991 -0.9863 -2.2469
 8759SOL     OW33275   2.485   5.885   1.406 -0.1649  0.2448  0.1156
 8759SOL    HW133276   2.449   5.792   1.398  1.0723 -0.3634  1.4522
 8759SOL    HW233277   2.495   5.908   1.503  0.6228  1.3447 -0.2282
 8760SOL     OW33278   1.029   0.057   4.328  0.6219  0.1616  0.1272
 8760SOL    HW133279   0.961   0.131   4.331  0.0437 -0.3816  0.9159
 8760SOL    HW233280   1.102   0.078   4.393  1.2566  0.7903 -0.7885
 8761SOL     OW33281   2.448   5.106   5.026 -0.3826  0.1500  0.3668
 8761SOL    HW133282   2.538   5.085   4.990 -0.9364 -1.2018 -0.2781
 8761SOL    HW233283   2.407   5.181   4.973 -0.2690 -0.2864 -0.3349
 8762SOL     OW33284   0.285   3.393   0.865  0.7105  0.4062  0.0290
 8762SOL    HW133285   0.311   3.403   0.961  1.5633 -0.2065 -0.1354
 8762SOL    HW233286   0.224   3.315   0.855 -2.1851  2.5229  0.5920
 8763SOL     OW33287   0.914   7.108   6.014  1.2469  0.0111  0.1776
 8763SOL    HW133288   0.896   7.200   5.978  2.0122  0.4943  0.9842
 8763SOL    HW233289   0.848   7.088   6.087  1.1854 -0.0081  0.1167
 8764SOL     OW33290   2.685   4.587   5.163 -0.5447 -0.2860  0.3271
 8764SOL    HW133291   2.662   4.677   5.200 -0.7004 -0.2087  0.0430
 8764SOL    HW233292   2.637   4.517   5.214 -0.1166 -0.2377  0.8069
 8765SOL     OW33293   0.609   5.409   7.081  0.3908  0.1629 -0.0396
 8765SOL    HW133294   0.647   5.485   7.027  2.1355 -0.1254  0.7516
 8765SOL    HW233295   0.522   5.438   7.123 -0.7836  0.5240 -2.6308
 8766SOL     OW33296   4.044   1.412   4.375  0.2235 -0.5611  0.1517
 8766SOL    HW133297   4.066   1.338   4.311 -0.1642 -1.1447  0.6857
 8766SOL    HW233298   4.037   1.498   4.325 -1.8384 -1.3009 -0.9092
 8767SOL     OW33299   3.783   2.259   1.112 -0.0581 -0.4175 -0.1340
 8767SOL    HW133300   3.802   2.352   1.081 -2.4348  0.0254 -0.3608
 8767SOL    HW233301   3.791   2.195   1.035 -0.7361 -0.0645 -0.4997
 8768SOL     OW33302   3.607   0.872   5.064  0.3462  0.2133  0.1402
 8768SOL    HW133303   3.634   0.961   5.101 -0.5597  0.6852 -0.3055
 8768SOL    HW233304   3.565   0.885   4.974 -2.4546 -0.3362  1.3085
 8769SOL     OW33305   0.952   1.360   3.855 -0.3447 -0.2313  0.5175
 8769SOL    HW133306   0.984   1.442   3.901  0.9096 -1.0360  1.1257
 8769SOL    HW233307   0.888   1.384   3.783 -0.5088  1.2193  1.1455
 8770SOL     OW33308   2.055   7.129   2.010  0.5846 -0.1224 -0.2726
 8770SOL    HW133309   2.073   7.176   2.096  1.7341 -0.4603 -0.3185
 8770SOL    HW233310   2.094   7.036   2.014 -1.1306 -0.8610 -0.3987
 8771SOL     OW33311   3.428   1.881   1.140  0.3109  0.1591 -0.2303
 8771SOL    HW133312   3.361   1.845   1.076 -0.0822 -0.0921  0.3181
 8771SOL    HW233313   3.390   1.960   1.188  0.3528 -0.0691  0.1814
 8772SOL     OW33314   0.608   3.293   5.905  0.3211 -0.5356 -0.5806
 8772SOL    HW133315   0.558   3.283   5.819  0.1624  1.1795 -0.6997
 8772SOL    HW233316   0.694   3.242   5.898  0.3056 -0.4311 -1.7448
 8773SOL     OW33317   6.698   4.132   1.955 -0.3118 -0.0948  0.8057
 8773SOL    HW133318   6.622   4.099   2.012  0.3737  1.6555  2.7795
 8773SOL    HW233319   6.671   4.217   1.910  0.2194  0.1304  0.9123
 8774SOL     OW33320   1.818   5.268   3.480  0.0832  0.3338 -0.1520
 8774SOL    HW133321   1.816   5.367   3.492  1.1262  0.2308  0.9610
 8774SOL    HW233322   1.845   5.224   3.566 -0.7237 -0.9442 -0.5218
 8775SOL     OW33323   2.856   2.405   4.130  0.3890  0.0559  0.7183
 8775SOL    HW133324   2.852   2.401   4.230 -1.4662 -0.4885  0.6455
 8775SOL    HW233325   2.764   2.417   4.094  1.2267  1.9555 -0.8785
 8776SOL     OW33326   7.119   3.301   1.009  0.4945 -0.0546 -0.0476
 8776SOL    HW133327   7.147   3.396   1.019  2.0018 -0.4985  0.0027
 8776SOL    HW233328   7.193   3.240   1.039 -0.5963 -1.2421  0.2941
 8777SOL     OW33329   3.084   1.140   6.351 -0.4128 -0.1057  0.2814
 8777SOL    HW133330   3.065   1.081   6.429  1.1741 -0.0532  0.7302
 8777SOL    HW233331   3.172   1.186   6.365 -1.1424  1.5597 -0.5481
 8778SOL     OW33332   4.899   2.375   3.953  0.0843 -0.1824  0.5811
 8778SOL    HW133333   4.895   2.275   3.953  0.7722 -0.2222 -0.6496
 8778SOL    HW233334   4.807   2.412   3.944 -0.1917 -0.7009  1.2181
 8779SOL     OW33335   2.115   0.345   3.336 -0.4886 -0.3564  0.2003
 8779SOL    HW133336   2.197   0.297   3.369  0.0364  1.1011  1.0660
 8779SOL    HW233337   2.035   0.315   3.389 -0.3257 -0.9415  0.1181
 8780SOL     OW33338   5.147   7.026   4.248 -0.4765  0.0203  0.0064
 8780SOL    HW133339   5.117   7.011   4.154  2.3611  2.6186 -1.4034
 8780SOL    HW233340   5.130   7.121   4.274 -0.0279 -0.3348  1.6391
 8781SOL     OW33341   0.943   6.347   3.729  0.6130 -0.2520 -0.3039
 8781SOL    HW133342   0.904   6.301   3.649  1.0948 -0.0932 -0.6343
 8781SOL    HW233343   0.906   6.440   3.734  0.6755 -0.2215 -0.4102
 8782SOL     OW33344   4.280   7.137   1.573 -0.1100  0.2521  0.2726
 8782SOL    HW133345   4.339   7.118   1.494 -0.5829 -1.6425  0.3489
 8782SOL    HW233346   4.186   7.149   1.541 -0.0507  1.0192  0.3888
 8783SOL     OW33347   4.109   0.484   2.190  0.3457  0.2163 -0.0152
 8783SOL    HW133348   4.014   0.489   2.222 -0.1338 -0.1102 -1.3816
 8783SOL    HW233349   4.115   0.518   2.097  1.2237 -1.6380 -0.6651
 8784SOL     OW33350   4.504   5.679   4.699  0.8517  0.2850  0.0344
 8784SOL    HW133351   4.407   5.702   4.706  1.1402  1.2800  0.7985
 8784SOL    HW233352   4.524   5.599   4.757  0.4793  0.0198 -0.2003
 8785SOL     OW33353   3.043   6.016   0.710 -0.1266  0.5014 -0.2267
 8785SOL    HW133354   3.062   5.957   0.788 -1.0214  1.0254  0.4083
 8785SOL    HW233355   2.952   5.995   0.673 -1.3946  2.9231  1.3890
 8786SOL     OW33356   5.926   5.575   0.640 -0.3502  1.0928 -0.1113
 8786SOL    HW133357   5.949   5.525   0.556 -1.8924 -0.0859  0.1380
 8786SOL    HW233358   5.838   5.542   0.674  0.6202  1.0262  2.3987
 8787SOL     OW33359   4.781   5.697   7.330  0.0674  0.1775  0.4202
 8787SOL    HW133360   4.784   5.640   7.411  0.8287  1.8631  1.6178
 8787SOL    HW233361   4.721   5.656   7.261  0.1637 -1.7301  1.4674
 8788SOL     OW33362   7.071   4.351   0.548  0.5941 -0.1885 -0.1940
 8788SOL    HW133363   7.109   4.312   0.464  0.3293 -0.4805 -0.1794
 8788SOL    HW233364   7.005   4.422   0.524  2.8495  1.9656 -0.2020
 8789SOL     OW33365   1.420   4.928   5.042  0.1817  0.0168 -0.2382
 8789SOL    HW133366   1.416   4.864   4.966  1.0875  2.0853 -2.0744
 8789SOL    HW233367   1.515   4.933   5.076 -0.4454 -1.8801  1.9381
 8790SOL     OW33368   2.411   5.604   1.408 -0.1521  0.8049  0.0676
 8790SOL    HW133369   2.371   5.516   1.382 -0.0110  1.1648 -1.4121
 8790SOL    HW233370   2.493   5.588   1.464 -1.2253  0.0440  1.4757
 8791SOL     OW33371   0.686   1.407   6.967 -0.0456 -0.0832  0.5522
 8791SOL    HW133372   0.616   1.478   6.961  0.8672  0.7532 -0.3167
 8791SOL    HW233373   0.646   1.325   7.009 -1.4395  0.5089  0.4228
 8792SOL     OW33374   4.884   5.280   1.543 -0.0104  0.4285  0.0867
 8792SOL    HW133375   4.879   5.245   1.449 -1.0996 -0.9385  0.6363
 8792SOL    HW233376   4.968   5.249   1.586  0.4386  0.9642 -0.3896
 8793SOL     OW33377   5.603   3.658   1.269 -0.0351  0.2832  0.0335
 8793SOL    HW133378   5.584   3.578   1.212  0.1718 -0.3523  0.8469
 8793SOL    HW233379   5.701   3.674   1.273 -0.0535  0.3609  0.1658
 8794SOL     OW33380   1.476   1.872   3.161 -0.4999  0.3386 -0.1839
 8794SOL    HW133381   1.553   1.812   3.180 -0.0704  1.2219  0.9051
 8794SOL    HW233382   1.392   1.818   3.153 -0.1640 -0.3802  1.0597
 8795SOL     OW33383   0.105   0.270   1.415  0.2542 -0.8593 -0.3498
 8795SOL    HW133384   0.110   0.369   1.400 -0.0087 -0.7418  0.3560
 8795SOL    HW233385   0.089   0.224   1.327 -0.0893 -0.2460 -0.6084
 8796SOL     OW33386   0.823   0.219   2.221 -0.2827 -0.0717 -0.2120
 8796SOL    HW133387   0.786   0.272   2.297  0.0955  0.8346 -0.6631
 8796SOL    HW233388   0.759   0.219   2.145  0.3022  0.8596 -0.7088
 8797SOL     OW33389   0.001   5.420   1.841  0.5054  0.1397  0.4370
 8797SOL    HW133390   0.057   5.367   1.776  0.6828  1.9005 -0.8855
 8797SOL    HW233391   0.060   5.481   1.894  0.0215  0.9712  0.0363
 8798SOL     OW33392   1.957   0.162   3.464  0.6135 -0.0207 -0.7637
 8798SOL    HW133393   2.034   0.106   3.493  1.2050  0.8965 -0.5318
 8798SOL    HW233394   1.901   0.111   3.398  0.0243 -1.6095  0.9202
 8799SOL     OW33395   3.994   7.022   2.155  0.2603 -0.4092 -0.5056
 8799SOL    HW133396   4.074   6.978   2.116  2.1581  0.1990  2.5364
 8799SOL    HW233397   3.925   6.953   2.176  0.9394 -1.2360 -0.9682
 8800SOL     OW33398   4.308   2.836   1.686  0.2330 -0.1243 -0.5154
 8800SOL    HW133399   4.376   2.876   1.747  0.9909 -1.5324 -0.4002
 8800SOL    HW233400   4.339   2.844   1.591 -0.7264  1.6499 -0.6920
 8801SOL     OW33401   4.400   0.022   1.292 -0.1077 -0.1343 -0.8351
 8801SOL    HW133402   4.452  -0.044   1.346 -1.3553 -0.8309 -0.4652
 8801SOL    HW233403   4.338   0.073   1.352  0.4951  1.0485 -1.1912
 8802SOL     OW33404   5.157   1.898   0.003  0.2070 -0.0906 -0.0805
 8802SOL    HW133405   5.161   1.872  -0.093 -1.2344  0.4251 -0.2903
 8802SOL    HW233406   5.211   1.833   0.057  0.1607 -0.9904 -1.1036
 8803SOL     OW33407   6.750   0.698   6.664 -0.1871  0.2389 -0.4537
 8803SOL    HW133408   6.713   0.779   6.619  0.5702  1.2849  0.7648
 8803SOL    HW233409   6.699   0.680   6.748  0.6819  0.4260  0.1205
 8804SOL     OW33410   5.453   1.559   4.293  0.0448 -0.2912  0.3102
 8804SOL    HW133411   5.503   1.644   4.308  0.8928 -0.9330  1.1448
 8804SOL    HW233412   5.459   1.533   4.196 -0.2079  0.5842  0.0599
 8805SOL     OW33413   4.304   2.771   2.676 -0.8560  0.1075 -0.3761
 8805SOL    HW133414   4.352   2.789   2.590  0.8031  0.2546  0.5533
 8805SOL    HW233415   4.251   2.687   2.668  0.2783 -0.5455 -1.1487
 8806SOL     OW33416   2.257   1.515   0.910 -0.2053 -0.1707  0.3620
 8806SOL    HW133417   2.286   1.476   0.997  0.6627  0.0882  0.1890
 8806SOL    HW233418   2.157   1.523   0.909 -0.1758  0.3489  1.5424
 8807SOL     OW33419   7.094   4.332   2.565  0.4959  0.0166  0.1619
 8807SOL    HW133420   7.140   4.417   2.537 -1.1870  0.8240 -0.2151
 8807SOL    HW233421   7.160   4.271   2.607  1.9114  1.1733 -0.3405
 8808SOL     OW33422   6.787   0.823   5.848 -0.4795 -0.2802 -0.7368
 8808SOL    HW133423   6.871   0.800   5.799 -0.8797 -1.4109 -0.9031
 8808SOL    HW233424   6.772   0.922   5.843  1.5584  0.1269  0.4526
 8809SOL     OW33425   6.967   6.351   0.951 -0.0549 -0.1172 -0.0123
 8809SOL    HW133426   6.984   6.253   0.968 -2.0758  0.0542  3.6074
 8809SOL    HW233427   7.015   6.405   1.021  0.8531  1.5131 -1.8513
 8810SOL     OW33428   6.720   6.517   3.237 -0.1601 -0.7100  0.2167
 8810SOL    HW133429   6.721   6.616   3.231 -1.5602 -0.6671  0.6688
 8810SOL    HW233430   6.754   6.488   3.326  1.8211 -0.7084 -0.5079
 8811SOL     OW33431   1.781   0.628   0.922  0.8636 -0.0574  0.4350
 8811SOL    HW133432   1.838   0.697   0.877  0.3421 -0.7545 -1.3415
 8811SOL    HW233433   1.720   0.672   0.988  0.3625  1.2037 -0.8646
 8812SOL     OW33434   2.307   5.343   5.878 -0.1261  0.0670 -0.1174
 8812SOL    HW133435   2.378   5.277   5.906 -0.3832  0.0519  0.5182
 8812SOL    HW233436   2.243   5.356   5.954 -0.8299  0.0455 -0.7111
 8813SOL     OW33437   7.298   5.967   6.529 -0.1956  0.5470  0.6033
 8813SOL    HW133438   7.376   6.009   6.575  0.8711  0.0877 -0.7490
 8813SOL    HW233439   7.234   6.038   6.498  0.4694  1.0215  0.3228
 8814SOL     OW33440   5.837   5.538   1.679 -0.2708  0.0105  0.5864
 8814SOL    HW133441   5.818   5.530   1.581  0.8876 -2.1157  0.5042
 8814SOL    HW233442   5.786   5.615   1.717 -2.3330 -0.4056 -1.2737
 8815SOL     OW33443   2.910   4.648   5.637  0.0105  0.2579  0.7925
 8815SOL    HW133444   2.862   4.724   5.681  0.0583  0.3886  0.6214
 8815SOL    HW233445   2.872   4.633   5.546 -0.4649 -0.3795  1.0918
 8816SOL     OW33446   0.656   2.291   5.738 -0.1666 -0.5754 -0.2392
 8816SOL    HW133447   0.749   2.262   5.761 -0.2456 -0.2873  0.4429
 8816SOL    HW233448   0.608   2.319   5.821 -0.4306  0.5191 -0.7568
 8817SOL     OW33449   1.789   6.696   0.844  0.4241 -0.3305 -0.9183
 8817SOL    HW133450   1.846   6.688   0.926 -0.5022 -0.8312 -0.3041
 8817SOL    HW233451   1.831   6.759   0.779  1.0088  0.3208  0.0853
 8818SOL     OW33452   4.193   6.046   3.762  0.2649 -0.0706 -0.2414
 8818SOL    HW133453   4.112   6.072   3.815 -0.5751 -1.5318 -0.7639
 8818SOL    HW233454   4.192   6.095   3.674 -0.4298 -0.5688 -0.5266
 8819SOL     OW33455   1.916   5.472   0.082  0.2380  0.2339  0.0023
 8819SOL    HW133456   1.842   5.442   0.142  0.2399  0.2797  0.0282
 8819SOL    HW233457   1.962   5.551   0.123  0.9795 -0.4520  0.4815
 8820SOL     OW33458   2.470   1.385   6.795  0.1658  0.0972 -0.2863
 8820SOL    HW133459   2.482   1.303   6.852  0.7182 -0.4702 -1.1982
 8820SOL    HW233460   2.528   1.377   6.713 -0.2234  1.1354 -0.6691
 8821SOL     OW33461   2.417   2.368   1.857  0.5602 -0.0706 -0.4647
 8821SOL    HW133462   2.413   2.278   1.814  0.3710 -0.3036  0.0461
 8821SOL    HW233463   2.482   2.366   1.933  0.4934  0.1995 -0.4009
 8822SOL     OW33464   6.362   1.369   3.193  0.0209  0.4971 -0.1287
 8822SOL    HW133465   6.309   1.407   3.268 -0.5970 -1.0679  0.2519
 8822SOL    HW233466   6.301   1.347   3.117 -0.1250 -2.3887  0.7366
 8823SOL     OW33467   1.909   6.835   6.128 -0.2256  0.0598  0.3579
 8823SOL    HW133468   1.905   6.917   6.185  2.5905  0.2795  0.3313
 8823SOL    HW233469   1.920   6.861   6.032  1.0374 -0.3397  0.3902
 8824SOL     OW33470   3.258   5.744   1.434 -0.0675 -0.1516  0.1489
 8824SOL    HW133471   3.180   5.692   1.398 -0.4692 -0.6071  1.6066
 8824SOL    HW233472   3.307   5.788   1.359 -0.5720 -1.4749 -0.9738
 8825SOL     OW33473   6.062   7.316   5.822  0.7459  0.5371 -0.1590
 8825SOL    HW133474   6.058   7.242   5.889  1.0406  1.9062  1.4329
 8825SOL    HW233475   6.049   7.280   5.730 -1.4253 -1.1790  0.7830
 8826SOL     OW33476   6.124   1.143   7.102 -0.0071  0.0896 -0.0683
 8826SOL    HW133477   6.027   1.122   7.117 -0.4340  1.8653 -0.1820
 8826SOL    HW233478   6.176   1.120   7.185 -0.8518  1.0232  0.7302
 8827SOL     OW33479   4.291   0.560   2.891 -0.2080 -0.1588  0.4846
 8827SOL    HW133480   4.314   0.638   2.832 -0.3485 -0.4199  0.0854
 8827SOL    HW233481   4.255   0.594   2.978 -0.9152  0.2115  0.0454
 8828SOL     OW33482   6.062   2.090   6.449 -0.2804 -0.1009 -0.5211
 8828SOL    HW133483   6.097   2.178   6.416  0.6496 -0.3465 -0.2038
 8828SOL    HW233484   6.130   2.019   6.433 -0.3109 -0.4449  0.8226
 8829SOL     OW33485   2.027   2.521   6.555  0.1709  0.3794  0.0556
 8829SOL    HW133486   1.949   2.520   6.493  0.1916  0.8774  0.0216
 8829SOL    HW233487   2.093   2.590   6.526  0.3793  0.3249  0.3883
 8830SOL     OW33488   2.673   2.051   1.839 -0.0773  0.4503 -0.0960
 8830SOL    HW133489   2.676   1.979   1.770 -0.1619  0.6082 -0.2635
 8830SOL    HW233490   2.591   2.039   1.896  0.2960 -0.0181  0.3433
 8831SOL     OW33491   0.397   3.858   6.539 -0.4448  0.1301 -0.0237
 8831SOL    HW133492   0.440   3.907   6.463 -0.0232  1.8075  1.2872
 8831SOL    HW233493   0.307   3.897   6.558 -0.5780 -0.3288  0.3065
 8832SOL     OW33494   4.719   5.029   4.614 -0.7658 -0.3383  0.4297
 8832SOL    HW133495   4.811   5.019   4.576 -0.6530  0.2241  0.5526
 8832SOL    HW233496   4.667   5.093   4.557 -0.7637  0.1076  0.9282
 8833SOL     OW33497   4.599   3.071   0.630  0.1924  0.1522  0.0435
 8833SOL    HW133498   4.664   3.142   0.658  0.8794 -0.2406 -0.5304
 8833SOL    HW233499   4.597   2.999   0.698 -0.9129  0.9871  0.8958
 8834SOL     OW33500   7.058   5.257   5.708  0.0437  0.5245 -0.0449
 8834SOL    HW133501   7.069   5.263   5.807  1.4663 -2.4947  0.0359
 8834SOL    HW233502   7.147   5.263   5.663 -0.2527 -1.1975 -0.9147
 8835SOL     OW33503   3.622   5.380   3.009  0.5958 -0.5278  0.3945
 8835SOL    HW133504   3.660   5.464   3.049  1.6263 -0.7633 -0.0798
 8835SOL    HW233505   3.522   5.382   3.016  0.7295 -0.3618  2.5745
 8836SOL     OW33506   5.982   6.920   1.242  0.5854 -0.3801  0.3351
 8836SOL    HW133507   5.928   6.876   1.314 -1.8026  0.5683 -0.8328
 8836SOL    HW233508   5.999   6.855   1.168 -1.4428  0.1053 -0.5916
 8837SOL     OW33509   0.533   3.806   4.755  0.4597 -0.2081 -0.0530
 8837SOL    HW133510   0.537   3.894   4.707  1.9913  0.6219  1.5132
 8837SOL    HW233511   0.448   3.801   4.807  0.2502  0.2458 -0.3455
 8838SOL     OW33512   3.196   1.782   5.537 -0.9188  0.2132  0.2060
 8838SOL    HW133513   3.159   1.693   5.507 -1.9122  0.1661  1.5240
 8838SOL    HW233514   3.296   1.777   5.540 -0.9873 -1.0471  0.8420
 8839SOL     OW33515   3.352   6.900   7.059 -0.0920  0.2988 -0.1840
 8839SOL    HW133516   3.328   6.973   7.124 -1.6589  0.5684 -1.0481
 8839SOL    HW233517   3.322   6.926   6.968  2.1946 -0.0263 -1.0672
 8840SOL     OW33518   1.134   2.681   6.208 -0.2853 -0.2980  0.2902
 8840SOL    HW133519   1.100   2.656   6.299  1.8460 -2.7891  0.4373
 8840SOL    HW233520   1.181   2.769   6.213  0.1993 -0.6251  1.7109
 8841SOL     OW33521   0.250   3.307   5.747  0.2288  0.0136  0.4365
 8841SOL    HW133522   0.188   3.318   5.670  0.3677 -1.2897  0.1294
 8841SOL    HW233523   0.345   3.315   5.716  0.2820 -0.4041  0.4881
 8842SOL     OW33524   3.946   6.151   5.060  0.1746  0.6143  0.1018
 8842SOL    HW133525   4.046   6.154   5.063  0.1635  0.0383  3.0115
 8842SOL    HW233526   3.915   6.141   4.966  2.8733  0.2205 -0.7748
 8843SOL     OW33527   3.002   6.340   5.797 -0.1442  0.3720  0.6975
 8843SOL    HW133528   3.030   6.384   5.882 -0.0983  0.7990  0.4647
 8843SOL    HW233529   3.083   6.311   5.746 -0.0405  2.9373 -0.6739
 8844SOL     OW33530   4.570   2.499   5.813 -0.1924  0.4209  0.0321
 8844SOL    HW133531   4.553   2.540   5.903 -2.1062 -0.3353  0.0374
 8844SOL    HW233532   4.543   2.403   5.815  1.4811 -0.0847 -0.8447
 8845SOL     OW33533   4.267   6.635   3.048  0.3813 -0.0312  0.8762
 8845SOL    HW133534   4.267   6.537   3.028  0.9026  0.3256 -0.9192
 8845SOL    HW233535   4.361   6.667   3.055  0.2118  0.5508  0.4569
 8846SOL     OW33536   2.456   4.450   2.149  0.7498 -0.3838  0.7299
 8846SOL    HW133537   2.359   4.426   2.150  1.3256 -3.0203 -0.5316
 8846SOL    HW233538   2.506   4.380   2.098  2.9899  2.1938 -0.6911
 8847SOL     OW33539   5.456   5.366   5.895  0.0622 -0.3771 -0.4543
 8847SOL    HW133540   5.427   5.313   5.974  0.0191 -0.8821 -0.8089
 8847SOL    HW233541   5.556   5.371   5.893  0.0525 -0.0050 -0.1359
 8848SOL     OW33542   1.010   1.877   2.533  0.0365 -0.3733 -0.4898
 8848SOL    HW133543   1.061   1.792   2.521 -0.9601 -1.2823  1.5382
 8848SOL    HW233544   0.912   1.859   2.532 -0.1834  0.6986  0.2902
 8849SOL     OW33545   3.787   1.977   6.494  0.0790  0.0739  0.5687
 8849SOL    HW133546   3.793   1.881   6.522 -1.4504 -0.3925 -0.6979
 8849SOL    HW233547   3.713   2.022   6.544  0.9274  0.6697  1.3171
 8850SOL     OW33548   5.320   6.824   4.495 -0.2178 -0.4465 -0.5571
 8850SOL    HW133549   5.294   6.807   4.590 -1.8884  0.3294 -0.8597
 8850SOL    HW233550   5.350   6.919   4.485 -1.3063 -0.1537 -1.0691
 8851SOL     OW33551   3.231   2.478   2.366 -0.1115  0.0803 -0.1972
 8851SOL    HW133552   3.227   2.431   2.454  0.8152 -1.2132 -0.8374
 8851SOL    HW233553   3.323   2.470   2.328 -0.1362  1.7914 -0.6641
 8852SOL     OW33554   6.252   3.072   3.863  0.8398  0.0698  0.2496
 8852SOL    HW133555   6.179   3.138   3.847  2.1773  1.4794 -0.2835
 8852SOL    HW233556   6.274   3.025   3.777  1.2065  0.3655  0.1769
 8853SOL     OW33557   2.525   4.321   4.685 -0.4386 -0.0741 -0.4593
 8853SOL    HW133558   2.427   4.341   4.682 -0.8392 -1.7858  0.1740
 8853SOL    HW233559   2.556   4.320   4.780 -0.2773 -1.5004 -0.5046
 8854SOL     OW33560   1.621   2.899   6.915  0.1960  0.0839  0.0637
 8854SOL    HW133561   1.587   2.876   6.824 -0.3347 -1.3988  0.6194
 8854SOL    HW233562   1.557   2.962   6.960 -1.0721 -1.4830  0.5123
 8855SOL     OW33563   2.047   1.108   5.643  0.0256 -0.0642 -0.2825
 8855SOL    HW133564   1.999   1.164   5.710 -0.1851 -0.9723  0.3410
 8855SOL    HW233565   2.115   1.164   5.595 -2.1861  1.4275 -1.7395
 8856SOL     OW33566   4.552   4.116   0.912  0.5770 -0.4864  0.2583
 8856SOL    HW133567   4.495   4.093   0.991  1.1611 -3.3053 -0.1088
 8856SOL    HW233568   4.636   4.160   0.943 -0.2910  0.6736  1.0147
 8857SOL     OW33569   4.125   1.742   0.893  0.0150 -0.1539 -0.0077
 8857SOL    HW133570   4.087   1.662   0.846  1.4763 -0.7980 -0.1116
 8857SOL    HW233571   4.121   1.727   0.992 -1.9497  0.6976  0.0820
 8858SOL     OW33572   6.140   6.815   2.908 -0.3492  0.0302 -0.6144
 8858SOL    HW133573   6.160   6.717   2.905  2.4332  0.4427  2.3516
 8858SOL    HW233574   6.217   6.866   2.871 -1.3625  1.1797 -1.1766
 8859SOL     OW33575   5.575   4.408   6.863  0.0829  0.0146 -0.3992
 8859SOL    HW133576   5.673   4.427   6.870 -0.2980  1.9258  0.2400
 8859SOL    HW233577   5.539   4.383   6.952  0.0189 -0.8116 -0.6591
 8860SOL     OW33578   5.747   1.028   6.432 -0.0822 -0.9680  0.5688
 8860SOL    HW133579   5.659   1.015   6.477 -0.9277  0.0427 -0.7384
 8860SOL    HW233580   5.777   0.941   6.392  0.0397 -1.5580  1.9409
 8861SOL     OW33581   1.672   5.490   5.360  0.0479 -0.5644  0.3993
 8861SOL    HW133582   1.750   5.553   5.365 -0.5577  0.4744 -2.4748
 8861SOL    HW233583   1.594   5.537   5.319 -1.9025 -1.8281  2.5483
 8862SOL     OW33584   6.652   1.075   2.163 -0.2901  0.4121 -0.7701
 8862SOL    HW133585   6.683   0.986   2.128 -0.6403  0.1728 -0.4832
 8862SOL    HW233586   6.555   1.087   2.142 -1.2924 -1.0113  2.5404
 8863SOL     OW33587   6.468   0.211   0.565 -0.1361  0.5490  0.1304
 8863SOL    HW133588   6.384   0.223   0.618  1.1445  0.2318  2.2861
 8863SOL    HW233589   6.518   0.297   0.562  0.2624  0.3184  0.2195
 8864SOL     OW33590   3.275   1.528   6.679 -0.6234 -0.2184 -0.4772
 8864SOL    HW133591   3.288   1.517   6.581 -1.9397 -2.3905 -0.4362
 8864SOL    HW233592   3.195   1.585   6.696  0.8546  1.9606 -0.6474
 8865SOL     OW33593   2.395   4.056   4.562  0.0506 -0.0753 -0.0193
 8865SOL    HW133594   2.327   4.123   4.533 -0.4199 -0.0065  1.2509
 8865SOL    HW233595   2.467   4.101   4.614  2.0281  0.1570 -2.8308
 8866SOL     OW33596   7.036   4.367   7.357 -0.2118 -0.2013  0.3882
 8866SOL    HW133597   7.134   4.355   7.338 -0.8214 -0.1930 -3.2487
 8866SOL    HW233598   7.021   4.456   7.399  1.3781 -0.3770  1.3856
 8867SOL     OW33599   2.029   5.044   3.535  0.6833  0.3166 -0.4116
 8867SOL    HW133600   1.960   5.072   3.603 -2.2739 -0.4689 -2.9785
 8867SOL    HW233601   2.059   5.124   3.483  1.7095  0.6573  0.6897
 8868SOL     OW33602   0.638   2.718   5.141  0.0928  0.1659 -0.0744
 8868SOL    HW133603   0.598   2.630   5.166 -0.9982  0.1449 -1.7779
 8868SOL    HW233604   0.710   2.703   5.073 -2.2592  0.7689 -2.8250
 8869SOL     OW33605   1.095   1.368   0.576  0.2375  0.4195 -0.1762
 8869SOL    HW133606   1.185   1.333   0.604  0.4498  1.4120  0.3952
 8869SOL    HW233607   1.101   1.405   0.483  0.6205  1.2135  0.1586
 8870SOL     OW33608   5.258   4.364   2.786  0.2656  0.1397 -0.5291
 8870SOL    HW133609   5.299   4.308   2.713 -1.0790 -3.1862  1.1393
 8870SOL    HW233610   5.301   4.342   2.873 -0.9366  1.0426  0.3059
 8871SOL     OW33611   4.687   1.178   3.692 -0.7153 -0.5358  0.0416
 8871SOL    HW133612   4.738   1.262   3.712 -0.7949 -0.9996  2.3459
 8871SOL    HW233613   4.746   1.098   3.709 -0.5476 -0.9651 -2.4070
 8872SOL     OW33614   1.701   0.196   0.489 -0.2015 -0.6648  0.0019
 8872SOL    HW133615   1.765   0.273   0.490 -0.9897  0.0068  0.3685
 8872SOL    HW233616   1.647   0.197   0.574  2.2686 -3.7690  1.6989
 8873SOL     OW33617   2.484   6.755   0.580  0.2980  0.8611  0.1298
 8873SOL    HW133618   2.418   6.822   0.547  0.8222  2.7044  2.6509
 8873SOL    HW233619   2.558   6.745   0.514 -0.5203  1.7126 -0.9273
 8874SOL     OW33620   0.240   2.882   1.390 -0.0276  0.3004  0.5935
 8874SOL    HW133621   0.280   2.801   1.433 -1.9444 -1.2478 -0.4458
 8874SOL    HW233622   0.168   2.919   1.449  0.1353  0.6173  0.5929
 8875SOL     OW33623   1.025   6.130   0.720 -0.0202  0.6069  0.6882
 8875SOL    HW133624   1.047   6.212   0.667 -1.0598  0.0786 -0.5891
 8875SOL    HW233625   1.025   6.050   0.660 -1.3582  0.0130  1.4439
 8876SOL     OW33626   7.095   1.004   2.641 -0.0453  0.9128  0.8057
 8876SOL    HW133627   7.076   0.962   2.729  1.7958 -1.9177 -0.0770
 8876SOL    HW233628   7.154   0.943   2.587 -2.7491  1.6618 -3.1827
 8877SOL     OW33629   6.238   6.245   2.839 -0.1971 -0.3458 -0.7295
 8877SOL    HW133630   6.152   6.220   2.794 -0.6944 -0.6343  0.3763
 8877SOL    HW233631   6.236   6.214   2.934  0.4878  1.0680 -0.2539
 8878SOL     OW33632   4.089   4.177   4.105  0.1342 -0.2164  0.5618
 8878SOL    HW133633   4.046   4.115   4.041  0.4843  0.8586 -0.7469
 8878SOL    HW233634   4.103   4.131   4.192 -2.7134 -0.9059  0.7154
 8879SOL     OW33635   4.938   6.761   0.814 -0.3098  0.1166  0.1152
 8879SOL    HW133636   4.840   6.758   0.835 -0.4073  0.8873 -0.2402
 8879SOL    HW233637   4.990   6.726   0.893 -0.7241  2.0390  1.2635
 8880SOL     OW33638   6.760   1.514   2.906  0.6253  0.8658  0.0266
 8880SOL    HW133639   6.858   1.525   2.895  0.7269  0.2712  0.3099
 8880SOL    HW233640   6.741   1.454   2.983  0.0032  2.0670  0.8239
 8881SOL     OW33641   6.007   6.172   5.571  0.2802  0.0407  0.0248
 8881SOL    HW133642   6.004   6.095   5.506  1.5952  0.4874 -0.5849
 8881SOL    HW233643   5.932   6.234   5.552  2.5203  1.8834 -3.2779
 8882SOL     OW33644   5.654   3.982   6.083 -0.0286 -1.1468  0.1757
 8882SOL    HW133645   5.599   4.017   6.007  2.7869  1.5305 -0.7224
 8882SOL    HW233646   5.706   3.902   6.052 -0.7533 -1.5651  0.0269
 8883SOL     OW33647   1.126   1.344   6.923 -0.0436  0.0284  0.6241
 8883SOL    HW133648   1.137   1.277   6.996 -2.7935 -1.1242  0.0592
 8883SOL    HW233649   1.151   1.302   6.835  0.4204  0.4697  0.5438
 8884SOL     OW33650   0.549   3.518   6.010 -0.5298  0.0170 -0.2767
 8884SOL    HW133651   0.598   3.438   5.976 -0.3365  0.5445 -1.2834
 8884SOL    HW233652   0.590   3.601   5.970  0.7969  0.7858  2.5676
 8885SOL     OW33653   0.828   2.086   6.679 -0.7884  0.1558  0.2839
 8885SOL    HW133654   0.772   2.052   6.754 -0.8448  2.3168  1.2650
 8885SOL    HW233655   0.911   2.129   6.715  0.4538 -1.0808 -1.0422
 8886SOL     OW33656   5.495   6.728   6.867 -0.3619 -0.4175  0.1439
 8886SOL    HW133657   5.556   6.649   6.865  0.6384  0.3637 -0.0285
 8886SOL    HW233658   5.488   6.767   6.775  0.3291  0.6011  0.5178
 8887SOL     OW33659   2.646   5.453   5.035 -0.2596 -0.0343 -0.0309
 8887SOL    HW133660   2.554   5.431   5.068 -0.5282  1.1638  0.0589
 8887SOL    HW233661   2.714   5.414   5.097 -0.7082 -0.9150 -0.0921
 8888SOL     OW33662   6.313   3.786   6.690  0.8852  0.3791  0.8441
 8888SOL    HW133663   6.254   3.866   6.699  1.5467  0.9083  0.5966
 8888SOL    HW233664   6.408   3.816   6.680  0.7403 -0.2564 -3.5909
 8889SOL     OW33665   0.939   5.142   4.048  0.7663 -0.1232 -0.7501
 8889SOL    HW133666   0.866   5.207   4.069 -1.3633 -2.3760 -0.9249
 8889SOL    HW233667   0.920   5.098   3.960  2.4097 -0.6625 -0.8505
 8890SOL     OW33668   5.836   6.777   5.389  0.0158  0.0444 -0.0843
 8890SOL    HW133669   5.897   6.838   5.339 -0.0613 -0.8490 -1.3045
 8890SOL    HW233670   5.753   6.761   5.335 -0.6787  0.1355  0.9312
 8891SOL     OW33671   2.182   4.143   6.097 -0.4071 -0.4141  1.0488
 8891SOL    HW133672   2.278   4.126   6.074 -0.3525  0.5169  0.5892
 8891SOL    HW233673   2.178   4.198   6.181 -0.5495 -0.7673  1.2754
 8892SOL     OW33674   6.893   2.396   2.014 -0.4651  0.1754 -0.2778
 8892SOL    HW133675   6.932   2.413   1.924  1.1838  1.0892  0.5840
 8892SOL    HW233676   6.828   2.469   2.037  0.7802  1.1712  0.1719
 8893SOL     OW33677   1.032   2.333   0.893  0.0607 -0.0472 -0.4018
 8893SOL    HW133678   1.092   2.399   0.937 -0.6207  1.0956 -1.1602
 8893SOL    HW233679   1.062   2.317   0.799  0.7549 -1.5056  0.0590
 8894SOL     OW33680   1.901   0.183   0.154  0.0054  0.1759  0.0709
 8894SOL    HW133681   1.875   0.136   0.069  0.4836  0.4320 -0.2149
 8894SOL    HW233682   1.969   0.254   0.134 -0.8543  1.1284  0.4670
 8895SOL     OW33683   4.468   5.288   2.137  0.2775 -0.0688  0.2843
 8895SOL    HW133684   4.505   5.357   2.199  0.5058 -0.2912  0.3960
 8895SOL    HW233685   4.541   5.251   2.079 -0.1576  1.0686 -1.0256
 8896SOL     OW33686   2.604   7.337   1.814 -0.0146  0.1835  0.3781
 8896SOL    HW133687   2.528   7.279   1.842  0.8643 -0.7187  0.9343
 8896SOL    HW233688   2.571   7.429   1.793 -1.3998 -0.4863 -0.4036
 8897SOL     OW33689   5.988   5.024   3.494  0.4339 -0.2244 -0.5942
 8897SOL    HW133690   5.895   4.989   3.489  0.4333 -0.1457 -1.1757
 8897SOL    HW233691   6.047   4.972   3.432  0.2787  1.2776 -2.0237
 8898SOL     OW33692   4.797   3.013   1.380 -0.3757  0.3320  0.3002
 8898SOL    HW133693   4.895   3.004   1.402 -0.5890 -2.0088  0.4834
 8898SOL    HW233694   4.786   3.066   1.297  0.9957  1.4020  0.7703
 8899SOL     OW33695   0.398   1.045   7.138  0.4685  0.0797 -0.0721
 8899SOL    HW133696   0.493   1.067   7.117  0.4405  1.3899  1.0342
 8899SOL    HW233697   0.348   1.022   7.055  1.8238 -0.8746 -0.6165
 8900SOL     OW33698   1.564   2.396   5.100  0.1700 -0.1662  0.3689
 8900SOL    HW133699   1.562   2.365   5.005 -0.6104  0.8121  0.0549
 8900SOL    HW233700   1.541   2.494   5.104  1.7193  0.1745  1.4124
 8901SOL     OW33701   1.875   2.607   5.310  0.7740 -0.5468 -0.6569
 8901SOL    HW133702   1.843   2.700   5.322  2.1119 -0.5261  3.3851
 8901SOL    HW233703   1.798   2.544   5.317 -0.0743  0.1931 -3.0269
 8902SOL     OW33704   5.101   1.755   2.250  0.2900 -0.1061 -0.4061
 8902SOL    HW133705   5.127   1.734   2.344 -1.1919 -1.9150 -0.3849
 8902SOL    HW233706   5.017   1.707   2.226 -0.0998  1.3973 -2.2274
 8903SOL     OW33707   3.955   6.614   7.278  0.3292  0.2014 -0.4439
 8903SOL    HW133708   4.050   6.615   7.308  0.3876 -1.2821 -0.5408
 8903SOL    HW233709   3.952   6.620   7.178  0.4998 -3.2563 -0.7165
 8904SOL     OW33710   2.332   5.977   5.737  0.1485 -0.1786  0.1930
 8904SOL    HW133711   2.400   5.963   5.810 -0.4212  1.0897  0.9809
 8904SOL    HW233712   2.311   5.889   5.694 -0.1322 -1.0967  2.1342
 8905SOL     OW33713   6.770   3.279   6.096  0.7155 -0.4979 -0.0168
 8905SOL    HW133714   6.866   3.257   6.112  0.4667 -1.3334  0.3201
 8905SOL    HW233715   6.712   3.210   6.139 -0.0668  0.7448  0.9631
 8906SOL     OW33716   1.267   0.042   5.998  0.3915  0.2677  0.4648
 8906SOL    HW133717   1.194   0.018   5.934  1.4963 -0.1520 -0.6263
 8906SOL    HW233718   1.277  -0.030   6.066  1.5921 -0.9284 -0.9646
 8907SOL     OW33719   1.638   1.934   6.743  0.2036 -0.1410 -0.1885
 8907SOL    HW133720   1.675   1.991   6.816 -3.1137 -0.3769  1.7562
 8907SOL    HW233721   1.692   1.851   6.735  0.5063 -0.1898  2.1186
 8908SOL     OW33722   1.537   2.145   3.927  0.1880  0.4253  0.2612
 8908SOL    HW133723   1.526   2.143   4.026 -0.5386  2.6996  0.2683
 8908SOL    HW233724   1.501   2.231   3.892 -0.2668 -0.6846 -2.0761
 8909SOL     OW33725   6.870   0.584   2.595  0.5560 -1.0738 -0.4994
 8909SOL    HW133726   6.794   0.594   2.659  1.1582 -0.6284  0.1506
 8909SOL    HW233727   6.907   0.492   2.600  0.2392 -1.2076 -0.6153
 8910SOL     OW33728   1.238   2.354   5.829 -0.3271  0.8804 -0.3502
 8910SOL    HW133729   1.257   2.394   5.740 -1.7565  0.5933 -0.8012
 8910SOL    HW233730   1.210   2.426   5.893  2.8191  1.4228  0.5339
 8911SOL     OW33731   0.953   4.580   4.248  0.0806  0.2502  0.0990
 8911SOL    HW133732   0.863   4.569   4.290  1.0959 -0.7905  2.0716
 8911SOL    HW233733   0.951   4.657   4.185 -1.2631  2.4299  2.7369
 8912SOL     OW33734   1.155   3.867   0.686  0.2858  0.1872  0.4013
 8912SOL    HW133735   1.100   3.894   0.607  0.9058  2.1920  0.6279
 8912SOL    HW233736   1.248   3.844   0.657  0.1461 -0.3734  0.3889
 8913SOL     OW33737   2.884   2.605   0.145 -0.2248 -0.7509  0.3977
 8913SOL    HW133738   2.948   2.534   0.172  0.6984 -0.6774 -1.5114
 8913SOL    HW233739   2.930   2.694   0.144 -0.6492 -0.5289  0.1259
 8914SOL     OW33740   1.393   2.655   0.246 -0.4300 -0.0675  0.2054
 8914SOL    HW133741   1.298   2.674   0.273 -0.3840  0.3598  0.0684
 8914SOL    HW233742   1.406   2.556   0.240 -0.6890 -0.1503  0.8717
 8915SOL     OW33743   1.374   3.502   7.204 -0.5179  0.3506 -0.1808
 8915SOL    HW133744   1.319   3.471   7.127 -0.0564  0.8738 -0.7274
 8915SOL    HW233745   1.435   3.429   7.235 -2.4477 -0.6878  1.2933
 8916SOL     OW33746   3.751   1.423   2.484  0.5149  1.1219  0.1579
 8916SOL    HW133747   3.778   1.516   2.458  2.0215  0.8710  0.8079
 8916SOL    HW233748   3.830   1.363   2.481 -0.4578 -0.1788 -0.3103
 8917SOL     OW33749   2.987   6.184   0.336 -0.3723 -0.7135 -0.8000
 8917SOL    HW133750   3.049   6.183   0.414 -0.7047 -1.2720 -0.5367
 8917SOL    HW233751   2.971   6.278   0.306 -0.9338 -0.4331  0.3559
 8918SOL     OW33752   2.915   3.113   6.644 -0.2796 -0.3726 -0.5146
 8918SOL    HW133753   2.908   3.131   6.546 -0.8429  0.3119 -0.3513
 8918SOL    HW233754   2.862   3.031   6.666  2.5164 -2.4700 -1.2951
 8919SOL     OW33755   5.473   4.916   4.270  0.3787  0.3984  0.7983
 8919SOL    HW133756   5.437   4.828   4.301 -0.8476  0.0299 -1.5631
 8919SOL    HW233757   5.561   4.901   4.224 -0.4059  0.2450 -0.6618
 8920SOL     OW33758   1.635   2.567   5.667  0.1917 -0.1573 -0.0483
 8920SOL    HW133759   1.716   2.558   5.724  0.6138  0.9377 -0.4739
 8920SOL    HW233760   1.638   2.498   5.594  1.3135  0.6074 -0.7439
 8921SOL     OW33761   0.193   4.649   0.742 -0.1082 -0.3503 -0.0766
 8921SOL    HW133762   0.199   4.703   0.826 -0.9702  0.5654 -0.6000
 8921SOL    HW233763   0.207   4.708   0.663 -0.5032 -0.9906 -0.6294
 8922SOL     OW33764   7.336   2.924   5.844 -0.3757  0.2150  0.0455
 8922SOL    HW133765   7.376   2.926   5.753 -0.7609  0.5309 -0.1210
 8922SOL    HW233766   7.390   2.865   5.904 -0.4160 -0.4109 -0.5283
 8923SOL     OW33767   2.687   4.615   3.517  0.1427  0.4330  0.0983
 8923SOL    HW133768   2.743   4.556   3.460 -0.0768  1.4368 -1.1971
 8923SOL    HW233769   2.730   4.626   3.607  1.8972  0.9935 -0.7908
 8924SOL     OW33770   6.372   6.817   0.278 -0.1639  0.4415  0.2620
 8924SOL    HW133771   6.457   6.809   0.226 -0.1131 -2.3343  0.6782
 8924SOL    HW233772   6.305   6.752   0.242 -0.4382 -0.8684  3.0434
 8925SOL     OW33773   7.058   3.762   5.063  0.3316 -0.4632 -0.0228
 8925SOL    HW133774   7.107   3.821   5.127 -0.3256  0.1650 -0.0906
 8925SOL    HW233775   7.002   3.818   5.003 -0.2696 -1.1598 -0.1139
 8926SOL     OW33776   1.821   3.961   6.820 -0.6490  0.6576 -0.0683
 8926SOL    HW133777   1.817   3.907   6.904 -1.7728 -0.1988 -0.6604
 8926SOL    HW233778   1.887   4.036   6.831  0.9543 -0.8387  0.7648
 8927SOL     OW33779   4.765   1.457   0.709 -0.1720  0.2578  0.0361
 8927SOL    HW133780   4.674   1.494   0.693  0.2297  0.9053 -0.8154
 8927SOL    HW233781   4.784   1.456   0.807 -1.0560  0.1943  0.2132
 8928SOL     OW33782   1.677   2.474   6.126 -0.4912 -0.2253  0.3148
 8928SOL    HW133783   1.591   2.519   6.102 -0.3021  0.7064  1.3099
 8928SOL    HW233784   1.683   2.464   6.226  1.3145  1.3802  0.4165
 8929SOL     OW33785   6.096   0.853   0.426 -0.0220  0.6296  0.4169
 8929SOL    HW133786   6.143   0.768   0.400 -2.0799 -0.6479  0.7005
 8929SOL    HW233787   6.161   0.928   0.429  2.2084 -1.2996  1.9448
 8930SOL     OW33788   3.262   3.225   6.243  0.6800 -0.1425 -0.1551
 8930SOL    HW133789   3.206   3.216   6.161 -0.7040 -0.5437  0.8169
 8930SOL    HW233790   3.262   3.139   6.294 -1.2365  1.0622  1.9821
 8931SOL     OW33791   4.756   7.252   7.358  0.7040  0.5011 -0.0996
 8931SOL    HW133792   4.829   7.217   7.301 -0.2778 -0.6156 -0.6855
 8931SOL    HW233793   4.793   7.280   7.447  2.2404  2.2981 -1.2775
 8932SOL     OW33794   1.316   4.968   6.483 -0.2409 -0.3113 -0.3237
 8932SOL    HW133795   1.306   4.900   6.556  1.1413 -1.1443 -0.8920
 8932SOL    HW233796   1.341   4.922   6.397 -0.0049  0.8412 -0.8884
 8933SOL     OW33797   5.806   4.957   0.621 -0.6550  0.0447 -0.0022
 8933SOL    HW133798   5.821   5.056   0.613  0.2709 -0.1340 -0.4815
 8933SOL    HW233799   5.711   4.937   0.597 -0.8394  0.8110  0.0553
 8934SOL     OW33800   7.082   2.279   0.013 -0.5900 -0.4117 -0.4606
 8934SOL    HW133801   7.104   2.274  -0.084  0.6623  0.5679 -0.2386
 8934SOL    HW233802   6.986   2.255   0.027 -0.5812 -1.2844 -1.8527
 8935SOL     OW33803   6.164   4.184   2.974 -0.3007  0.6597  0.0568
 8935SOL    HW133804   6.120   4.179   3.064  0.8324  1.8829  0.7011
 8935SOL    HW233805   6.186   4.092   2.942  0.4931  0.2875  1.6417
 8936SOL     OW33806   3.525   0.965   0.562 -0.1795 -0.3781 -0.4506
 8936SOL    HW133807   3.516   0.988   0.465 -1.6524 -1.6099 -0.6310
 8936SOL    HW233808   3.472   1.031   0.616 -2.7248 -2.0420 -0.8166
 8937SOL     OW33809   1.763   3.067   3.725  0.2931  0.3690 -0.3308
 8937SOL    HW133810   1.831   3.117   3.670  0.9261 -0.8688 -0.6948
 8937SOL    HW233811   1.739   2.982   3.678  0.7891 -0.6735  1.2770
 8938SOL     OW33812   5.853   4.471   4.156  0.2983  0.0409  0.4007
 8938SOL    HW133813   5.836   4.374   4.168 -1.4929 -0.1720 -3.2021
 8938SOL    HW233814   5.766   4.519   4.141  1.4261  1.5858 -1.4830
 8939SOL     OW33815   7.269   0.050   5.042  0.1982 -0.0653  0.1683
 8939SOL    HW133816   7.322   0.003   5.113 -0.2820  0.8356  1.1458
 8939SOL    HW233817   7.312   0.035   4.953  0.6842 -1.3995  0.6102
 8940SOL     OW33818   6.238   6.691   6.986 -0.3693  0.0363  0.8344
 8940SOL    HW133819   6.316   6.733   6.940  0.3284  0.6878  2.5893
 8940SOL    HW233820   6.174   6.762   7.014 -0.9612 -0.3876  0.5696
 8941SOL     OW33821   0.360   7.095   5.416 -0.1387  0.1585  0.1088
 8941SOL    HW133822   0.295   7.069   5.345  0.9117 -0.5049 -0.6270
 8941SOL    HW233823   0.403   7.182   5.391  0.4569 -0.2291 -0.2331
 8942SOL     OW33824   3.847   5.624   5.741 -0.2159 -0.0332 -0.0699
 8942SOL    HW133825   3.915   5.623   5.815  0.4475 -0.9815 -0.6744
 8942SOL    HW233826   3.854   5.539   5.689 -1.1331  0.3439 -0.8131
 8943SOL     OW33827   3.700   6.055   2.874  0.1405  0.5347  0.3485
 8943SOL    HW133828   3.655   6.060   2.963  1.4552 -0.3230  1.0792
 8943SOL    HW233829   3.798   6.074   2.885  0.4770 -0.5082 -0.7721
 8944SOL     OW33830   4.589   0.832   2.096  0.4714 -0.2695 -0.3058
 8944SOL    HW133831   4.512   0.814   2.157 -0.0490 -0.4895 -1.0309
 8944SOL    HW233832   4.660   0.763   2.111 -0.4926 -1.5269 -1.3496
 8945SOL     OW33833   3.862   2.545   5.474 -0.1620 -0.0087 -0.4136
 8945SOL    HW133834   3.925   2.492   5.418 -0.1370 -0.6426  0.2103
 8945SOL    HW233835   3.874   2.520   5.571 -3.0620 -1.9262 -0.5018
 8946SOL     OW33836   0.054   4.628   2.747  0.1073 -0.3462  0.1561
 8946SOL    HW133837   0.079   4.724   2.738  1.0698 -0.5781  0.3610
 8946SOL    HW233838   0.126   4.570   2.710 -0.8758 -0.9745 -0.8138
 8947SOL     OW33839   1.747   6.579   1.260 -0.1200 -1.0604 -0.0071
 8947SOL    HW133840   1.721   6.514   1.332  1.2182 -0.1798  1.3000
 8947SOL    HW233841   1.777   6.529   1.179 -0.6284 -2.0622  0.4158
 8948SOL     OW33842   4.953   3.548   5.720  0.2063 -0.6266  0.6083
 8948SOL    HW133843   4.904   3.576   5.803 -1.2997  0.3357 -0.5785
 8948SOL    HW233844   4.888   3.542   5.644  2.5050  5.0994 -2.0982
 8949SOL     OW33845   3.053   2.670   3.615 -0.1104 -0.5091  0.2334
 8949SOL    HW133846   3.054   2.606   3.538  0.1136 -1.5247  1.0814
 8949SOL    HW233847   2.977   2.648   3.676 -0.5609  0.5720  0.0791
 8950SOL     OW33848   1.449   3.965   1.878 -0.3775  0.3084 -0.1990
 8950SOL    HW133849   1.536   4.008   1.852 -0.3934  0.2630 -0.3263
 8950SOL    HW233850   1.439   3.969   1.978  0.8609 -1.7693  0.0311
 8951SOL     OW33851   1.763   3.570   5.680  0.5944 -0.6189  0.2829
 8951SOL    HW133852   1.801   3.592   5.590  0.5931  1.8518  0.8322
 8951SOL    HW233853   1.834   3.530   5.738  1.0913 -0.4811 -0.2290
 8952SOL     OW33854   2.473   4.374   5.961  0.0196 -0.0002  0.1692
 8952SOL    HW133855   2.384   4.398   5.922  1.0608 -0.4034 -2.5261
 8952SOL    HW233856   2.541   4.370   5.889  2.2482  0.2519  2.2045
 8953SOL     OW33857   0.309   4.596   7.090  0.3170  0.1819  0.4456
 8953SOL    HW133858   0.348   4.531   7.155 -0.3312 -1.2570 -0.5770
 8953SOL    HW233859   0.325   4.564   6.997 -2.0952  0.2323 -0.0199
 8954SOL     OW33860   3.955   3.479   6.885  0.0485 -0.6765 -0.0043
 8954SOL    HW133861   4.009   3.528   6.816  0.5454 -1.3089 -0.0645
 8954SOL    HW233862   3.882   3.428   6.839  0.3893 -1.1108 -0.0696
 8955SOL     OW33863   7.051   1.751   1.594 -0.1353 -0.2269  0.3995
 8955SOL    HW133864   6.971   1.811   1.594 -0.5972 -0.8392  0.5045
 8955SOL    HW233865   7.110   1.774   1.671 -0.3769  0.0009  0.5173
 8956SOL     OW33866   5.890   0.564   1.858  0.5800 -0.0894 -0.3815
 8956SOL    HW133867   5.901   0.517   1.946  2.1590 -0.9693 -1.0235
 8956SOL    HW233868   5.793   0.584   1.842  0.2385 -0.2932  1.3609
 8957SOL     OW33869   1.987   4.887   6.860  0.0940  0.3470  0.0400
 8957SOL    HW133870   1.987   4.924   6.767 -1.0570  0.9616  0.2688
 8957SOL    HW233871   1.892   4.873   6.889  0.4091  1.3909  1.5988
 8958SOL     OW33872   4.047   6.550   4.938  0.1865 -0.5449 -0.9725
 8958SOL    HW133873   4.003   6.586   4.855  1.0113 -0.6580 -1.4669
 8958SOL    HW233874   4.006   6.593   5.018  0.2344  0.5028 -1.4994
 8959SOL     OW33875   4.226   4.092   4.344 -0.4313 -0.3185 -0.4444
 8959SOL    HW133876   4.307   4.098   4.286  0.1746 -0.3856  0.3798
 8959SOL    HW233877   4.254   4.079   4.439 -1.3725  1.2284  0.0679
 8960SOL     OW33878   5.296   2.060   4.813  0.2094 -0.5047  0.2880
 8960SOL    HW133879   5.365   1.991   4.792  0.4193 -0.6877  1.5001
 8960SOL    HW233880   5.324   2.148   4.774 -0.9489 -1.4561 -2.8215
 8961SOL     OW33881   3.403   2.070   1.339  0.1944 -0.3890  0.0250
 8961SOL    HW133882   3.500   2.051   1.330  0.4808  0.1197  1.7788
 8961SOL    HW233883   3.390   2.165   1.368 -0.8287 -0.4441 -0.2161
 8962SOL     OW33884   4.509   6.174   3.558 -0.5204 -0.1547 -0.6326
 8962SOL    HW133885   4.527   6.253   3.499 -0.2307 -0.2954 -0.7376
 8962SOL    HW233886   4.572   6.176   3.636 -0.3830 -0.3814 -0.7352
 8963SOL     OW33887   0.191   6.617   5.298  0.8638  0.4829 -0.0239
 8963SOL    HW133888   0.099   6.652   5.281  1.3477  0.7613 -2.1722
 8963SOL    HW233889   0.186   6.521   5.327 -0.0014 -0.1189 -2.0930
 8964SOL     OW33890   5.721   4.463   5.763  0.4252  0.0819 -0.0418
 8964SOL    HW133891   5.699   4.555   5.794 -0.0214 -0.9060  2.7234
 8964SOL    HW233892   5.817   4.443   5.783  0.9204  0.4583 -1.9956
 8965SOL     OW33893   1.764   5.171   7.035  0.7889 -0.5085  0.0777
 8965SOL    HW133894   1.767   5.074   7.059  0.4070 -0.1243  1.7165
 8965SOL    HW233895   1.794   5.226   7.113 -2.5763  0.8717  0.4870
 8966SOL     OW33896   0.948   6.122   2.017  0.7608 -0.0825  0.4504
 8966SOL    HW133897   0.946   6.049   2.086  0.3477 -1.0074 -0.5300
 8966SOL    HW233898   1.039   6.125   1.975  0.3001 -1.1027 -0.6352
 8967SOL     OW33899   1.215   4.934   4.055 -0.3204 -0.3138  0.0732
 8967SOL    HW133900   1.206   5.030   4.081  2.4615 -0.2787  1.1038
 8967SOL    HW233901   1.234   4.928   3.957 -1.0661  0.1444 -0.1051
 8968SOL     OW33902   4.873   1.367   3.770 -0.0869 -0.3974 -0.2834
 8968SOL    HW133903   4.825   1.438   3.718 -0.7465 -1.0039 -0.5155
 8968SOL    HW233904   4.971   1.383   3.767 -0.1241 -0.3875 -1.6634
 8969SOL     OW33905   0.732   3.176   0.785  0.4758  0.2171 -0.2483
 8969SOL    HW133906   0.770   3.226   0.864  0.6919  0.3184 -0.4148
 8969SOL    HW233907   0.651   3.225   0.751  1.3061  1.0490 -1.0739
 8970SOL     OW33908   2.594   3.588   3.154 -0.0281  0.6870 -0.3066
 8970SOL    HW133909   2.561   3.636   3.235 -0.3282  0.3310 -0.2166
 8970SOL    HW233910   2.522   3.588   3.084  1.0386  3.0153 -1.4500
 8971SOL     OW33911   6.231   4.416   3.731  0.1035 -0.3571  0.1914
 8971SOL    HW133912   6.321   4.373   3.729 -0.1431 -0.8562 -0.6948
 8971SOL    HW233913   6.232   4.493   3.794  1.5338  0.5183 -0.8827
 8972SOL     OW33914   0.616   4.077   0.590  0.0483 -0.4960 -0.0453
 8972SOL    HW133915   0.681   4.146   0.621 -1.7105  0.6961  1.0854
 8972SOL    HW233916   0.549   4.120   0.530 -0.5935 -1.3896  0.0314
 8973SOL     OW33917   4.824   1.767   3.303  0.4204 -0.3425 -0.4161
 8973SOL    HW133918   4.781   1.709   3.234 -0.0654 -1.1610  0.5587
 8973SOL    HW233919   4.752   1.814   3.355  0.7351 -0.8227  0.4582
 8974SOL     OW33920   3.492   3.971   4.994  0.2832 -0.1736 -0.1544
 8974SOL    HW133921   3.505   3.872   5.002  2.4206  0.1114  0.2103
 8974SOL    HW233922   3.402   3.990   4.955 -0.6668 -2.2178  1.0068
 8975SOL     OW33923   4.604   4.501   4.611  0.1016  0.1712 -0.0123
 8975SOL    HW133924   4.551   4.434   4.663  0.0392  0.5818  0.4530
 8975SOL    HW233925   4.589   4.593   4.648  2.6745  0.0713  1.4547
 8976SOL     OW33926   1.331   4.884   5.690 -0.3568 -0.2027  0.3425
 8976SOL    HW133927   1.384   4.897   5.606 -1.6442 -1.6143 -0.7178
 8976SOL    HW233928   1.347   4.961   5.752  1.8965  0.0385 -0.4851
 8977SOL     OW33929   2.534   6.491   2.589 -0.3452  0.4058 -0.6074
 8977SOL    HW133930   2.480   6.412   2.559 -0.2863  0.2469 -0.3032
 8977SOL    HW233931   2.616   6.459   2.637 -0.3441  0.6520 -0.4423
 8978SOL     OW33932   2.722   3.578   3.535  0.3232  0.7841  0.2565
 8978SOL    HW133933   2.698   3.483   3.515 -0.5023  1.0564 -0.0658
 8978SOL    HW233934   2.733   3.589   3.634 -0.8078  0.6328  0.3993
 8979SOL     OW33935   6.385   3.112   5.594 -0.1613  0.0537  0.3499
 8979SOL    HW133936   6.477   3.140   5.622 -0.3136  0.5843  0.3272
 8979SOL    HW233937   6.356   3.168   5.516  0.6846 -2.1087 -1.5693
 8980SOL     OW33938   5.266   0.544   0.235  0.0408 -0.4635  0.4072
 8980SOL    HW133939   5.248   0.632   0.279  0.1718  0.0605 -0.5786
 8980SOL    HW233940   5.363   0.538   0.211 -0.2779 -0.2067 -0.9770
 8981SOL     OW33941   3.105   2.622   4.499 -0.1437 -0.8183 -0.2305
 8981SOL    HW133942   3.200   2.641   4.525 -1.2998  1.6848  2.3056
 8981SOL    HW233943   3.082   2.527   4.524  1.2000 -0.9412  0.5879
 8982SOL     OW33944   1.702   6.734   6.953  0.0328  0.1326  0.6107
 8982SOL    HW133945   1.790   6.692   6.974  0.2586  0.2072 -0.1788
 8982SOL    HW233946   1.633   6.663   6.942  0.1638  0.0323  0.4398
 8983SOL     OW33947   2.452   3.811   1.207 -0.8756  0.0415  0.0939
 8983SOL    HW133948   2.378   3.744   1.217 -1.0386  0.5147  2.5106
 8983SOL    HW233949   2.424   3.883   1.144 -2.5913  0.3091  1.1276
 8984SOL     OW33950   1.185   0.847   1.994  0.3088 -0.5306  0.2298
 8984SOL    HW133951   1.158   0.820   2.087 -0.4849  0.1032  0.1870
 8984SOL    HW233952   1.136   0.930   1.968  0.0174 -1.0855 -1.0243
 8985SOL     OW33953   6.420   0.831   0.839 -0.0386  0.0585  0.5322
 8985SOL    HW133954   6.385   0.782   0.919  1.1253  0.9412  1.5779
 8985SOL    HW233955   6.415   0.930   0.855 -2.1231  0.3350 -1.4623
 8986SOL     OW33956   2.201   1.891   6.083  0.2744 -0.5847 -0.2720
 8986SOL    HW133957   2.175   1.981   6.049  0.0580 -0.8220 -0.7316
 8986SOL    HW233958   2.182   1.885   6.181  1.9566  0.5017  0.1485
 8987SOL     OW33959   7.245   5.926   3.113  0.1244 -0.3450  0.2692
 8987SOL    HW133960   7.265   5.959   3.021 -1.2563 -1.6707 -0.5454
 8987SOL    HW233961   7.319   5.865   3.143  0.5934  0.1146  0.0553
 8988SOL     OW33962   4.941   6.685   2.212 -0.3846  0.3299 -0.3602
 8988SOL    HW133963   5.034   6.720   2.216  0.4611 -1.8288 -0.6973
 8988SOL    HW233964   4.892   6.709   2.295  0.7645  0.6578  0.2230
 8989SOL     OW33965   4.913   2.906   2.595  0.1291 -0.1298  0.4356
 8989SOL    HW133966   4.992   2.883   2.653 -0.0531  1.6366  1.4234
 8989SOL    HW233967   4.940   2.978   2.531 -0.0808 -1.0772 -0.7390
 8990SOL     OW33968   2.424   4.693   3.490  0.1045  0.2794 -0.2680
 8990SOL    HW133969   2.403   4.787   3.517 -0.2968 -0.1973  1.1069
 8990SOL    HW233970   2.520   4.687   3.464  0.1673  1.0466 -0.2389
 8991SOL     OW33971   0.378   3.941   4.261 -0.3140 -0.8936  0.2760
 8991SOL    HW133972   0.301   3.935   4.197  0.0469 -1.3114 -0.1219
 8991SOL    HW233973   0.423   4.029   4.250 -1.8241  0.0951  1.7715
 8992SOL     OW33974   2.895   3.688   1.724  0.3528  0.3299 -0.8278
 8992SOL    HW133975   2.830   3.762   1.706 -1.8843 -1.6255 -0.9740
 8992SOL    HW233976   2.860   3.631   1.799  1.6255 -1.0966 -1.3064
 8993SOL     OW33977   5.161   1.188   6.437  0.3308  0.0430  0.5558
 8993SOL    HW133978   5.108   1.200   6.521 -0.1797 -2.6655  0.6612
 8993SOL    HW233979   5.204   1.098   6.437 -0.7197 -0.5327 -2.6337
 8994SOL     OW33980   3.242   0.116   1.161 -0.0478 -0.3876 -0.4308
 8994SOL    HW133981   3.210   0.174   1.086 -1.2023  0.0248  0.3761
 8994SOL    HW233982   3.206   0.024   1.150  1.5027 -0.8819 -1.5219
 8995SOL     OW33983   2.705   3.930   3.387  0.3611  0.4999 -0.4677
 8995SOL    HW133984   2.685   3.946   3.290 -0.2876 -0.7555 -0.5597
 8995SOL    HW233985   2.782   3.866   3.395 -0.9178 -1.0512 -0.2038
 8996SOL     OW33986   3.083   3.315   6.672 -0.1637  0.7161 -0.0441
 8996SOL    HW133987   3.022   3.238   6.654 -0.4877  0.8771  0.3596
 8996SOL    HW233988   3.056   3.360   6.757  0.2332  1.0702 -0.1021
 8997SOL     OW33989   6.182   2.151   3.129 -0.0940  0.2125  0.5094
 8997SOL    HW133990   6.254   2.082   3.140  0.6901  0.5252 -2.2087
 8997SOL    HW233991   6.200   2.228   3.190  1.5193 -0.0153  0.3474
 8998SOL     OW33992   6.014   4.876   4.849 -0.3459 -0.1723  0.4687
 8998SOL    HW133993   5.929   4.892   4.799 -0.7081 -2.8021  0.1532
 8998SOL    HW233994   6.084   4.939   4.816 -1.8531  1.2494 -0.0694
 8999SOL     OW33995   5.418   6.874   6.113 -0.3817 -0.3050  0.3954
 8999SOL    HW133996   5.342   6.841   6.168 -1.2741  0.3203 -0.4317
 8999SOL    HW233997   5.396   6.864   6.016 -0.4563  2.1595  0.1276
 9000SOL     OW33998   3.360   1.745   0.208 -0.0299  0.3794 -0.3719
 9000SOL    HW133999   3.362   1.789   0.118 -0.1029  0.8130 -0.1603
 9000SOL    HW234000   3.335   1.812   0.277  0.1190  0.0641 -0.0145
 9001SOL     OW34001   4.230   5.428   4.666  0.3032  0.6322 -0.1455
 9001SOL    HW134002   4.215   5.420   4.567  0.7052  0.6959 -0.2118
 9001SOL    HW234003   4.307   5.370   4.693 -1.3280 -1.2568  0.5261
 9002SOL     OW34004   1.238   2.641   3.147  0.4597  0.1106  0.4169
 9002SOL    HW134005   1.212   2.567   3.209 -1.1799 -0.2819 -0.7125
 9002SOL    HW234006   1.185   2.723   3.169 -2.1079 -0.7948 -2.1197
 9003SOL     OW34007   2.133   3.326   1.971  0.1691  0.4255 -0.4471
 9003SOL    HW134008   2.202   3.323   2.043 -1.1129 -2.2303  0.7545
 9003SOL    HW234009   2.131   3.238   1.923 -1.4742  0.9119 -1.3262
 9004SOL     OW34010   1.608   1.136   0.439 -0.3836  0.0059  0.4630
 9004SOL    HW134011   1.674   1.065   0.462 -0.4148 -0.2097 -0.1233
 9004SOL    HW234012   1.522   1.094   0.411 -0.1764  0.2701 -0.5630
 9005SOL     OW34013   4.456   4.757   6.943  0.4067 -0.5665 -0.3689
 9005SOL    HW134014   4.544   4.802   6.961 -0.6501  1.1975  0.5364
 9005SOL    HW234015   4.385   4.827   6.931 -1.0910 -1.9930  0.0446
 9006SOL     OW34016   6.185   6.860   0.001 -0.2123 -0.0676 -0.3590
 9006SOL    HW134017   6.104   6.885   0.054 -0.7383 -1.0051 -0.7104
 9006SOL    HW234018   6.203   6.762   0.011  0.8445  0.1138 -0.3388
 9007SOL     OW34019   1.259   6.541   6.790  0.0809 -0.0013 -0.0482
 9007SOL    HW134020   1.199   6.616   6.818 -0.7893 -0.5920 -0.2986
 9007SOL    HW234021   1.319   6.572   6.717 -0.8084  0.2400 -0.6944
 9008SOL     OW34022   1.728   5.389   4.367  0.6192  0.9277 -0.3620
 9008SOL    HW134023   1.792   5.319   4.397 -1.5351 -1.7976 -1.9767
 9008SOL    HW234024   1.677   5.424   4.445  1.3786  0.3891  0.3790
 9009SOL     OW34025   0.906   3.053   2.871  0.0726 -0.1129 -0.5612
 9009SOL    HW134026   0.990   3.002   2.891 -0.1847  0.0427  0.9451
 9009SOL    HW234027   0.845   2.995   2.816 -1.0071 -2.1762  2.6940
 9010SOL     OW34028   1.149   1.533   7.146 -0.4501  0.2619  0.3250
 9010SOL    HW134029   1.189   1.622   7.125  0.5840 -0.4702 -0.9181
 9010SOL    HW234030   1.162   1.472   7.068 -0.9893 -1.0224  1.2292
 9011SOL     OW34031   4.711   6.383   0.808 -1.0709 -0.7326  0.5244
 9011SOL    HW134032   4.624   6.404   0.852  0.1071  0.0261  2.5211
 9011SOL    HW234033   4.761   6.315   0.862  0.5532  0.4743  0.6020
 9012SOL     OW34034   5.171   0.409   4.148  0.5023  0.3559 -0.4993
 9012SOL    HW134035   5.133   0.329   4.194  1.5990  0.1128  0.0053
 9012SOL    HW234036   5.174   0.392   4.049 -1.1127  0.5629 -0.5900
 9013SOL     OW34037   2.119   6.170   3.877  0.6776  0.3618  0.3982
 9013SOL    HW134038   2.077   6.127   3.797 -0.2853 -0.8165  1.5255
 9013SOL    HW234039   2.142   6.265   3.855 -0.0862  0.2247 -1.0873
 9014SOL     OW34040   6.035   3.769   0.125  0.4649 -0.6352 -1.0626
 9014SOL    HW134041   5.964   3.811   0.182 -0.5013 -0.7754 -2.1284
 9014SOL    HW234042   6.003   3.681   0.090  2.5473 -2.3658  1.2687
 9015SOL     OW34043   6.224   5.337   1.638  0.1145  0.4341 -0.0855
 9015SOL    HW134044   6.230   5.407   1.568  0.8494  0.9494  0.4789
 9015SOL    HW234045   6.295   5.268   1.623  0.1543  0.4462  0.0441
 9016SOL     OW34046   4.816   2.909   4.489  0.1810  0.2161 -0.2226
 9016SOL    HW134047   4.850   2.937   4.399  0.1109 -0.9128 -0.6150
 9016SOL    HW234048   4.772   2.820   4.481  0.3083  0.0381  0.9713
 9017SOL     OW34049   3.652   1.528   5.484  0.5204 -0.6078  0.4464
 9017SOL    HW134050   3.707   1.516   5.402  1.0695  0.1766  0.6977
 9017SOL    HW234051   3.701   1.493   5.564  0.2229 -0.8525  0.5251
 9018SOL     OW34052   1.003   3.025   4.941  1.0325 -0.4543  0.2692
 9018SOL    HW134053   1.077   3.086   4.915  0.3653 -0.5729 -2.0416
 9018SOL    HW234054   0.984   2.961   4.866 -2.0454  0.2237  0.3793
 9019SOL     OW34055   6.385   1.325   1.451  0.1977  0.1773 -0.4721
 9019SOL    HW134056   6.292   1.308   1.485 -0.1622  1.7246 -0.6026
 9019SOL    HW234057   6.403   1.424   1.455  2.2464 -0.2194  0.5912
 9020SOL     OW34058   7.130   4.060   7.149 -0.4950  0.0882  0.4103
 9020SOL    HW134059   7.064   4.090   7.081  0.4235 -0.9785 -0.9752
 9020SOL    HW234060   7.151   3.963   7.135  0.5875  0.1606  1.4687
 9021SOL     OW34061   5.786   2.555   4.899  0.0301 -0.2939  0.4376
 9021SOL    HW134062   5.749   2.480   4.845  1.5205  0.2884 -1.4324
 9021SOL    HW234063   5.782   2.640   4.846  0.1391  0.5848  1.8124
 9022SOL     OW34064   1.658   3.779   2.880 -0.4005 -0.3276  0.7915
 9022SOL    HW134065   1.645   3.775   2.781 -3.2422 -0.3511  1.1327
 9022SOL    HW234066   1.754   3.762   2.902  0.3659  0.2333 -1.9857
 9023SOL     OW34067   4.097   5.718   3.682 -0.1786 -0.0455 -0.5401
 9023SOL    HW134068   4.095   5.800   3.740  0.7410 -0.4286  0.0431
 9023SOL    HW234069   4.186   5.710   3.638 -0.3031 -0.6774 -0.6836
 9024SOL     OW34070   4.689   4.537   4.897 -0.3788  0.1846  0.0310
 9024SOL    HW134071   4.730   4.609   4.953  0.7514  0.9807 -1.7959
 9024SOL    HW234072   4.629   4.578   4.828 -0.2423 -0.6607 -0.5984
 9025SOL     OW34073   4.577   1.529   5.487 -0.6784 -0.1574  0.4751
 9025SOL    HW134074   4.653   1.588   5.461  0.2371 -1.3035  0.5089
 9025SOL    HW234075   4.536   1.489   5.405 -0.8501 -0.0258  0.4965
 9026SOL     OW34076   2.481   3.267   5.601  0.5074 -0.5123 -0.3679
 9026SOL    HW134077   2.538   3.270   5.519 -0.2523 -1.4835 -0.9437
 9026SOL    HW234078   2.445   3.175   5.613  0.6213 -0.3809  1.0698
 9027SOL     OW34079   5.285   3.866   0.323 -0.3983 -0.0207  0.0852
 9027SOL    HW134080   5.196   3.914   0.322 -0.0531  0.6841  1.3994
 9027SOL    HW234081   5.314   3.847   0.230 -0.6286  2.2235 -0.4686
 9028SOL     OW34082   5.263   1.422   2.780 -0.4575  0.3760  0.3270
 9028SOL    HW134083   5.323   1.470   2.844  0.4196  0.1168 -0.3014
 9028SOL    HW234084   5.266   1.468   2.691 -2.5672  1.4403  0.7597
 9029SOL     OW34085   7.157   0.823   6.285 -0.4567 -0.3028  0.3604
 9029SOL    HW134086   7.094   0.874   6.226 -1.1574 -0.6814  0.7839
 9029SOL    HW234087   7.119   0.815   6.377 -0.7270 -2.3001  0.0974
 9030SOL     OW34088   0.929   4.748   0.106 -0.1255 -0.1749  0.4710
 9030SOL    HW134089   1.008   4.693   0.079 -0.9243 -0.8672 -0.5111
 9030SOL    HW234090   0.868   4.759   0.028 -0.3862  1.4272  0.8920
 9031SOL     OW34091   6.501   4.840   2.369 -0.0242  0.5009 -0.1478
 9031SOL    HW134092   6.569   4.772   2.340  0.0188  0.4360  0.1020
 9031SOL    HW234093   6.535   4.932   2.348  0.1010  0.4640 -0.1088
 9032SOL     OW34094   1.786   6.259   0.305 -0.0529  0.4880 -0.5316
 9032SOL    HW134095   1.842   6.189   0.260 -0.1222 -0.0840  0.2725
 9032SOL    HW234096   1.827   6.283   0.393  0.2307  1.8060 -1.0225
 9033SOL     OW34097   1.356   2.524   2.042  0.1724  1.1499  0.8988
 9033SOL    HW134098   1.344   2.484   2.133 -0.5085  0.0095  0.3179
 9033SOL    HW234099   1.266   2.545   2.003  0.4533  1.4896  0.4253
 9034SOL     OW34100   4.975   7.135   2.623  0.0415 -0.4466  0.3741
 9034SOL    HW134101   4.996   7.087   2.708 -1.7432  1.5766  2.0109
 9034SOL    HW234102   5.024   7.222   2.621  0.0355 -0.4640 -0.6517
 9035SOL     OW34103   5.996   3.270   0.020 -0.2482 -0.4788 -0.1425
 9035SOL    HW134104   6.089   3.262   0.055  0.1484  0.8408 -0.9040
 9035SOL    HW234105   5.937   3.307   0.092  0.1570  0.2709 -0.1891
 9036SOL     OW34106   3.205   5.384   1.732 -0.1673  0.3360 -0.2686
 9036SOL    HW134107   3.220   5.355   1.826  1.3959 -1.5764 -1.0476
 9036SOL    HW234108   3.142   5.320   1.687 -0.2918  0.7795 -0.7301
 9037SOL     OW34109   4.806   3.171   5.741 -0.1300  0.4843 -0.7584
 9037SOL    HW134110   4.888   3.161   5.684 -1.5550  0.3589 -2.8404
 9037SOL    HW234111   4.747   3.242   5.702 -2.0069 -0.8816 -0.4687
 9038SOL     OW34112   3.810   1.134   3.645  0.1960 -0.4557 -0.4059
 9038SOL    HW134113   3.781   1.072   3.573 -0.5903 -1.5612  0.8334
 9038SOL    HW234114   3.909   1.144   3.643  0.2565 -1.1688 -1.0893
 9039SOL     OW34115   1.125   2.938   6.614  0.8367  0.2401  0.5041
 9039SOL    HW134116   1.201   2.940   6.550  1.8423 -2.4120  1.5705
 9039SOL    HW234117   1.158   2.956   6.707 -0.4247  2.8087  0.5102
 9040SOL     OW34118   6.638   1.590   1.073 -0.1104 -0.4562  0.3377
 9040SOL    HW134119   6.688   1.674   1.096 -1.7907  0.7705 -0.3585
 9040SOL    HW234120   6.540   1.605   1.088 -0.4103 -2.3805  0.4152
 9041SOL     OW34121   1.691   2.844   3.569  0.1160  0.5229  0.1589
 9041SOL    HW134122   1.662   2.821   3.477  1.0241  0.4741 -0.1181
 9041SOL    HW234123   1.770   2.788   3.594 -1.0700 -0.6069  1.5602
 9042SOL     OW34124   4.880   4.862   6.679 -0.5563  0.5886 -0.3277
 9042SOL    HW134125   4.858   4.925   6.605 -1.7328  1.4709  0.7474
 9042SOL    HW234126   4.920   4.913   6.755  3.9690 -0.7604 -1.6230
 9043SOL     OW34127   4.505   5.680   3.770  0.4155 -0.7832  0.2807
 9043SOL    HW134128   4.477   5.606   3.831 -3.5105 -0.8169 -1.4411
 9043SOL    HW234129   4.459   5.765   3.796  0.2488 -0.3446 -1.3808
 9044SOL     OW34130   1.222   3.940   3.832 -0.5679 -0.4242  0.1334
 9044SOL    HW134131   1.176   3.989   3.759  0.4499  0.0070 -0.2265
 9044SOL    HW234132   1.302   3.992   3.862  1.9159 -2.9061 -1.8571
 9045SOL     OW34133   3.190   4.488   0.785 -0.0995  0.2384 -0.3799
 9045SOL    HW134134   3.172   4.586   0.800 -1.5917 -0.3622  2.1843
 9045SOL    HW234135   3.106   4.442   0.757  0.1689 -0.6045  0.1657
 9046SOL     OW34136   3.730   6.438   3.618  0.7207  0.2094  0.4195
 9046SOL    HW134137   3.707   6.352   3.573 -0.5892  0.7106  0.1289
 9046SOL    HW234138   3.829   6.453   3.612  0.9830 -1.3222  0.5708
 9047SOL     OW34139   5.817   1.702   1.684 -0.1930 -0.4797 -0.2340
 9047SOL    HW134140   5.762   1.651   1.751 -0.1589 -1.0586 -0.6438
 9047SOL    HW234141   5.843   1.641   1.609 -1.2778  0.4891 -1.4030
 9048SOL     OW34142   3.342   4.193   4.588  0.1746  0.2441 -0.7227
 9048SOL    HW134143   3.345   4.207   4.489 -0.5113 -0.4198 -0.8412
 9048SOL    HW234144   3.316   4.099   4.607  0.8805  0.2072  0.0950
 9049SOL     OW34145   2.682   0.008   3.413  0.0346 -0.1685  0.0720
 9049SOL    HW134146   2.782   0.002   3.420  0.0710  1.2609  0.9377
 9049SOL    HW234147   2.657   0.067   3.337 -0.1947 -2.0003 -1.3160
 9050SOL     OW34148   0.270   4.167   4.402  0.5986  0.2244  0.2280
 9050SOL    HW134149   0.294   4.140   4.496  2.4243 -2.2757 -0.8876
 9050SOL    HW234150   0.173   4.151   4.387  0.3026  0.5475  1.6567
 9051SOL     OW34151   2.148   3.683   4.524  0.3218 -1.0860  0.6317
 9051SOL    HW134152   2.212   3.655   4.453  1.3178 -0.0218  1.0839
 9051SOL    HW234153   2.185   3.762   4.573 -1.8470  0.2384  0.1895
 9052SOL     OW34154   2.530   0.336   3.515  0.0817 -0.0412  0.3001
 9052SOL    HW134155   2.506   0.415   3.571 -1.9050 -1.4738  1.5414
 9052SOL    HW234156   2.573   0.266   3.572 -0.9694 -1.0793 -0.1503
 9053SOL     OW34157   2.371   3.887   5.160  0.6645 -0.3054 -0.5132
 9053SOL    HW134158   2.297   3.954   5.169 -0.2092 -1.3747  0.5250
 9053SOL    HW234159   2.459   3.934   5.154  0.1314  0.9049  1.0127
 9054SOL     OW34160   7.339   0.483   5.394  0.4096 -0.5432  0.1416
 9054SOL    HW134161   7.417   0.544   5.409  1.3164 -1.3952 -1.0148
 9054SOL    HW234162   7.300   0.500   5.304 -1.2619  0.4376  1.0415
 9055SOL     OW34163   2.571   5.751   7.044 -1.0294  0.9652 -0.1646
 9055SOL    HW134164   2.526   5.785   6.961 -1.0329  1.4164  0.0190
 9055SOL    HW234165   2.634   5.821   7.078  1.0694 -0.2921 -1.3515
 9056SOL     OW34166   6.108   6.287   1.412  0.0272 -0.5113  0.0644
 9056SOL    HW134167   6.163   6.218   1.365  0.8918  0.0052  0.3051
 9056SOL    HW234168   6.017   6.250   1.430  0.6614 -1.7840  0.7029
 9057SOL     OW34169   6.782   2.662   2.840 -0.5625  0.1554 -0.8286
 9057SOL    HW134170   6.813   2.707   2.756 -0.9680 -0.1794 -1.1585
 9057SOL    HW234171   6.795   2.563   2.831 -0.2881  0.1467 -0.3620
 9058SOL     OW34172   6.041   4.663   4.246 -0.5433  0.4647 -0.0763
 9058SOL    HW134173   6.130   4.628   4.217 -0.4406 -0.4283  1.2954
 9058SOL    HW234174   5.969   4.599   4.219 -0.9160  1.7687 -2.2671
 9059SOL     OW34175   3.997   5.331   4.814 -0.2690 -0.1869 -0.1145
 9059SOL    HW134176   4.074   5.350   4.752  2.7036 -1.5199  2.9764
 9059SOL    HW234177   3.953   5.417   4.840  0.4991  0.6565 -1.5487
 9060SOL     OW34178   3.210   4.064   0.153  0.4058  0.3424 -0.0148
 9060SOL    HW134179   3.254   4.002   0.218  2.4882  0.5834 -1.1335
 9060SOL    HW234180   3.144   4.014   0.097 -0.7905 -0.0302  1.7059
 9061SOL     OW34181   5.495   7.270   5.916  0.8152 -0.7715 -0.1226
 9061SOL    HW134182   5.513   7.247   5.821 -0.4046 -0.0100 -0.5467
 9061SOL    HW234183   5.582   7.276   5.966  1.3557 -3.1065 -0.7077
 9062SOL     OW34184   0.584   2.523   2.660  0.0852 -0.2517  0.1673
 9062SOL    HW134185   0.510   2.456   2.659  0.8422 -1.1061  0.4428
 9062SOL    HW234186   0.597   2.557   2.754  1.8735 -2.2007  0.6799
 9063SOL     OW34187   6.007   5.955   5.394  0.4593  0.9508  0.7121
 9063SOL    HW134188   5.927   5.945   5.335  1.6272  0.3652 -0.8157
 9063SOL    HW234189   5.988   5.917   5.484 -0.7739  0.2227  0.1527
 9064SOL     OW34190   0.167   1.177   2.900  0.0155 -0.4485 -0.4811
 9064SOL    HW134191   0.112   1.150   2.821 -0.2078  1.3137 -0.9356
 9064SOL    HW234192   0.207   1.267   2.884 -0.9698  0.4657  1.8601
 9065SOL     OW34193   5.575   0.469   5.926 -0.0689  0.0939 -0.8078
 9065SOL    HW134194   5.554   0.395   5.863 -2.4230  0.5240 -0.5660
 9065SOL    HW234195   5.585   0.432   6.018  2.0864 -0.3577 -1.2041
 9066SOL     OW34196   2.198   4.393   0.339 -0.1640 -0.4831  0.2088
 9066SOL    HW134197   2.111   4.432   0.369  0.4643  0.5695  0.6568
 9066SOL    HW234198   2.202   4.396   0.239 -0.6211 -0.4966  0.1863
 9067SOL     OW34199   1.983   3.930   6.117 -0.1678 -0.3026 -0.2490
 9067SOL    HW134200   1.906   3.990   6.137  0.6045  0.4867  0.4028
 9067SOL    HW234201   2.065   3.986   6.099  0.5401 -1.1595  0.2811
 9068SOL     OW34202   4.777   3.341   5.969  0.1452  0.1972  0.1540
 9068SOL    HW134203   4.852   3.315   6.029 -0.0147 -0.6513  0.0028
 9068SOL    HW234204   4.771   3.275   5.894 -0.1248  0.8268 -0.3720
 9069SOL     OW34205   2.401   0.799   6.428  0.3466 -0.9572 -0.2631
 9069SOL    HW134206   2.441   0.721   6.476 -1.6151 -1.2704  0.9086
 9069SOL    HW234207   2.468   0.835   6.362  1.8531 -2.6063  0.3117
 9070SOL     OW34208   1.390   7.114   6.510  0.1246 -0.4164 -0.4842
 9070SOL    HW134209   1.489   7.104   6.502  0.2504 -0.3421  0.8394
 9070SOL    HW234210   1.354   7.042   6.569 -0.2601  1.0097  1.0747
 9071SOL     OW34211   5.350   4.687   5.931 -0.3059  0.0098 -0.3308
 9071SOL    HW134212   5.347   4.689   5.831 -1.2027 -2.2226 -0.3814
 9071SOL    HW234213   5.396   4.604   5.962  1.1858  1.3457  1.1266
 9072SOL     OW34214   2.216   5.011   6.343  0.2758  0.3473 -0.1162
 9072SOL    HW134215   2.186   5.105   6.357  0.3662  0.0356  2.2601
 9072SOL    HW234216   2.205   4.959   6.427 -0.5636 -2.0079 -1.6252
 9073SOL     OW34217   2.422   5.524   6.488 -0.2849  0.1148  0.3903
 9073SOL    HW134218   2.479   5.585   6.543 -1.2001 -0.4510  1.9996
 9073SOL    HW234219   2.328   5.558   6.487 -0.7692 -1.1563  1.1592
 9074SOL     OW34220   5.642   4.235   1.653  0.3995 -0.2605  0.2536
 9074SOL    HW134221   5.718   4.239   1.717  0.8100  1.4368 -0.3215
 9074SOL    HW234222   5.665   4.172   1.578 -0.2122 -2.4974  1.8966
 9075SOL     OW34223   5.553   3.453   3.834 -0.0232  0.7013 -0.6791
 9075SOL    HW134224   5.461   3.441   3.869 -0.5402  1.4581 -1.7446
 9075SOL    HW234225   5.603   3.366   3.839  0.3842  1.0981  3.1377
 9076SOL     OW34226   3.476   5.780   4.766 -0.4900  0.4968 -0.2081
 9076SOL    HW134227   3.487   5.720   4.686 -1.2857 -1.8628  1.3749
 9076SOL    HW234228   3.384   5.821   4.764 -0.8526 -0.2950 -0.0389
 9077SOL     OW34229   7.031   4.304   1.554 -0.9023 -0.2612  0.1979
 9077SOL    HW134230   7.001   4.253   1.634  1.0735  1.0333  1.7949
 9077SOL    HW234231   6.967   4.380   1.538 -0.3489  0.5189  1.6073
 9078SOL     OW34232   3.284   4.821   2.529 -0.0118  0.4932  0.4627
 9078SOL    HW134233   3.371   4.775   2.514 -1.1283 -0.8758 -2.1532
 9078SOL    HW234234   3.267   4.885   2.454 -2.4166 -1.1421 -0.4439
 9079SOL     OW34235   6.292   4.749   4.161 -0.0942 -0.2812 -0.1602
 9079SOL    HW134236   6.248   4.833   4.193  3.7160  1.8356 -0.1470
 9079SOL    HW234237   6.267   4.733   4.065 -2.7431 -0.5405  0.5166
 9080SOL     OW34238   4.740   5.952   0.343 -0.4770  0.3029  0.1006
 9080SOL    HW134239   4.673   6.012   0.386 -0.5092  0.7190 -0.5232
 9080SOL    HW234240   4.813   5.930   0.408 -0.5728  0.8538  0.3915
 9081SOL     OW34241   6.340   4.867   1.602 -0.2797  0.5079 -0.1527
 9081SOL    HW134242   6.270   4.867   1.674  0.2830  1.2961  0.3932
 9081SOL    HW234243   6.392   4.952   1.606  0.9570 -0.2243 -0.3222
 9082SOL     OW34244   1.817   2.029   0.307 -0.3137  0.0128  0.0150
 9082SOL    HW134245   1.806   2.050   0.404  0.8858  0.3488  0.0787
 9082SOL    HW234246   1.824   1.930   0.295 -2.6898 -0.1899  0.0361
 9083SOL     OW34247   3.476   1.193   3.409 -0.3216 -0.2043 -0.1005
 9083SOL    HW134248   3.426   1.110   3.385  0.6959 -1.2275  1.1965
 9083SOL    HW234249   3.419   1.273   3.390 -0.7084 -1.0968 -2.8673
 9084SOL     OW34250   6.527   1.479   5.924  0.3070  0.1936  0.2534
 9084SOL    HW134251   6.578   1.565   5.933  0.1540  0.2394  0.7371
 9084SOL    HW234252   6.516   1.456   5.828 -1.5511  1.8868  0.0161
 9085SOL     OW34253   4.753   4.759   5.069  0.1392  0.5742 -0.3116
 9085SOL    HW134254   4.734   4.858   5.071  2.3474  1.0108 -0.1682
 9085SOL    HW234255   4.851   4.744   5.082 -0.2190 -1.6611 -0.1220
 9086SOL     OW34256   5.100   0.455   2.774 -0.1586  0.0955  0.5346
 9086SOL    HW134257   5.137   0.546   2.790 -0.1340  0.3573 -0.9133
 9086SOL    HW234258   5.018   0.462   2.716  0.3520 -0.8550 -0.3334
 9087SOL     OW34259   6.024   6.803   2.390  0.5669 -0.3581 -0.3580
 9087SOL    HW134260   5.938   6.770   2.351  0.9487 -1.1562 -0.5403
 9087SOL    HW234261   6.101   6.771   2.334  0.9700  0.5950 -0.3658
 9088SOL     OW34262   2.643   5.328   0.912 -0.3712  0.0639  0.5918
 9088SOL    HW134263   2.722   5.390   0.917  0.5190 -0.9827 -0.4019
 9088SOL    HW234264   2.576   5.365   0.847  0.2078 -0.0689 -0.0845
 9089SOL     OW34265   5.216   6.868   1.354  0.0024 -0.8140 -0.5481
 9089SOL    HW134266   5.260   6.947   1.310 -4.6141  2.3896  0.1050
 9089SOL    HW234267   5.252   6.857   1.446 -0.9802  2.3194  0.3130
 9090SOL     OW34268   6.828   1.403   2.638  0.2970 -0.4234 -0.8959
 9090SOL    HW134269   6.878   1.483   2.606 -0.1179  0.0622 -0.3247
 9090SOL    HW234270   6.782   1.424   2.724 -1.5005 -0.6410 -1.7793
 9091SOL     OW34271   3.842   4.040   0.136  0.9088  0.2272 -0.0639
 9091SOL    HW134272   3.801   3.968   0.192 -1.5145  0.5083 -1.3842
 9091SOL    HW234273   3.921   4.004   0.087  0.9415 -0.9586  0.8223
 9092SOL     OW34274   0.024   1.769   0.327  0.3654  0.2875 -0.3286
 9092SOL    HW134275   0.016   1.679   0.284  0.7312  0.7563 -1.4040
 9092SOL    HW234276   0.012   1.761   0.426 -1.9743 -0.6224 -0.6588
 9093SOL     OW34277   0.502   3.703   4.084 -0.0247  0.6180  0.1668
 9093SOL    HW134278   0.490   3.608   4.057  2.2871  0.0402  1.0247
 9093SOL    HW234279   0.521   3.707   4.182  2.7916  1.6827 -0.3864
 9094SOL     OW34280   7.098   5.268   6.812  0.0185 -0.3740  0.8652
 9094SOL    HW134281   7.175   5.331   6.799 -0.8686  0.8915  1.6078
 9094SOL    HW234282   7.017   5.320   6.838 -1.2797 -1.6303 -0.6156
 9095SOL     OW34283   5.107   6.975   2.433  0.3179  0.1974 -0.0772
 9095SOL    HW134284   5.070   7.052   2.485 -0.0932 -1.0550  1.5200
 9095SOL    HW234285   5.032   6.916   2.403  0.6243  0.4424 -1.3866
 9096SOL     OW34286   7.125   2.925   0.975  0.0760 -0.1703 -0.2088
 9096SOL    HW134287   7.174   2.840   0.953  0.9845 -0.2013  1.7812
 9096SOL    HW234288   7.191   3.000   0.984 -0.2637 -0.0936  1.9175
 9097SOL     OW34289   3.850   1.807   5.304  0.6821  0.7382 -0.2056
 9097SOL    HW134290   3.756   1.772   5.301  0.7402  0.6019 -0.5513
 9097SOL    HW234291   3.873   1.848   5.215  1.0167  0.5826 -0.1951
 9098SOL     OW34292   2.318   2.493   2.269 -0.0571  0.0112 -0.3573
 9098SOL    HW134293   2.236   2.545   2.242 -0.3315 -0.1121  0.2322
 9098SOL    HW234294   2.385   2.555   2.309  0.1516  0.1164 -0.8615
 9099SOL     OW34295   4.474   0.202   4.912  0.5536 -0.3788 -0.0627
 9099SOL    HW134296   4.503   0.216   5.006  0.4041 -0.5967  0.0160
 9099SOL    HW234297   4.515   0.118   4.877  0.5685 -0.3244 -0.1775
 9100SOL     OW34298   2.588   5.030   4.262  0.0988 -0.1042 -0.4021
 9100SOL    HW134299   2.601   4.947   4.317 -0.9535  0.3030  0.4793
 9100SOL    HW234300   2.526   5.010   4.185 -1.6001  0.2853  0.8368
 9101SOL     OW34301   0.874   0.167   5.376 -0.0820 -0.0139 -0.3961
 9101SOL    HW134302   0.848   0.225   5.299  1.6327 -2.7816 -3.1514
 9101SOL    HW234303   0.840   0.075   5.362 -0.0865 -0.4950  2.4126
 9102SOL     OW34304   4.285   0.737   6.829  0.3007  0.4480 -0.4152
 9102SOL    HW134305   4.307   0.643   6.853 -1.6615  0.1631  0.2986
 9102SOL    HW234306   4.362   0.777   6.778  1.4855 -1.2493  0.0075
 9103SOL     OW34307   4.209   3.694   0.418  0.1119  0.2608 -0.3593
 9103SOL    HW134308   4.245   3.649   0.499  0.8142  1.6312  0.1147
 9103SOL    HW234309   4.282   3.709   0.352 -0.1430  0.5566 -0.5783
 9104SOL     OW34310   5.849   1.114   7.172  0.1386  0.0633 -0.2687
 9104SOL    HW134311   5.824   1.206   7.200  0.1153  0.1070 -0.4308
 9104SOL    HW234312   5.780   1.049   7.206 -0.6750  0.2834 -1.4442
 9105SOL     OW34313   6.939   3.654   5.319 -0.5147  0.3601  0.0248
 9105SOL    HW134314   6.902   3.717   5.249  1.8311  2.3357  0.4968
 9105SOL    HW234315   6.950   3.563   5.279 -2.3185  0.6342 -1.1942
 9106SOL     OW34316   6.116   0.961   5.190  0.3951 -0.2827  0.3206
 9106SOL    HW134317   6.165   0.896   5.132 -2.7481 -1.3685 -1.2176
 9106SOL    HW234318   6.099   1.046   5.140  0.7933  0.1259  0.8749
 9107SOL     OW34319   2.385   3.650   2.965 -0.2396 -0.4190  0.0872
 9107SOL    HW134320   2.401   3.585   2.891  0.9264  0.3096 -0.3208
 9107SOL    HW234321   2.302   3.626   3.014 -0.3928 -1.5825 -0.7391
 9108SOL     OW34322   0.081   7.283   1.495 -0.8696  0.3545  0.1090
 9108SOL    HW134323   0.055   7.371   1.535  0.1555  1.4864 -1.6142
 9108SOL    HW234324   0.178   7.266   1.513  0.0458  1.6786 -3.1861
 9109SOL     OW34325   3.045   3.156   5.486 -0.4437 -0.4483  0.3132
 9109SOL    HW134326   3.077   3.061   5.484  0.7399 -0.0384 -0.4458
 9109SOL    HW234327   2.983   3.171   5.408 -1.9064 -1.0196  1.3342
 9110SOL     OW34328   5.973   3.377   6.683  0.2890 -0.0137  0.0096
 9110SOL    HW134329   5.885   3.341   6.713  1.4581 -2.3434  0.7699
 9110SOL    HW234330   5.998   3.336   6.595 -0.2544  2.0694 -1.1235
 9111SOL     OW34331   1.602   1.726   5.317 -0.1454 -0.2041  0.5477
 9111SOL    HW134332   1.592   1.801   5.251  0.4952 -1.3477 -0.8903
 9111SOL    HW234333   1.533   1.657   5.298 -1.2135  0.3476  2.3515
 9112SOL     OW34334   2.862   1.227   4.039 -0.3360 -0.2511 -0.5051
 9112SOL    HW134335   2.921   1.281   4.099  0.6663  1.1071 -2.6545
 9112SOL    HW234336   2.811   1.161   4.094  2.3995 -0.7765  1.5563
 9113SOL     OW34337   5.291   6.697   4.023  0.2957 -0.0976  0.5848
 9113SOL    HW134338   5.318   6.667   3.932 -0.3554  1.1141 -0.0164
 9113SOL    HW234339   5.268   6.617   4.079 -0.0431 -0.7982 -0.5500
 9114SOL     OW34340   1.564   3.413   0.380 -0.1550 -0.1869  0.6383
 9114SOL    HW134341   1.563   3.439   0.284  1.6017  0.6200  0.8193
 9114SOL    HW234342   1.479   3.365   0.403 -0.2180 -1.1357 -1.5001
 9115SOL     OW34343   5.169   6.208   5.905  0.0242 -0.2752  0.4372
 9115SOL    HW134344   5.261   6.170   5.913 -0.3465 -1.3788 -0.3825
 9115SOL    HW234345   5.118   6.188   5.989 -0.0587 -1.3093  0.1517
 9116SOL     OW34346   1.913   4.955   0.365  0.2581 -0.1462  0.1682
 9116SOL    HW134347   1.876   5.046   0.344  1.3429  0.4856  0.9823
 9116SOL    HW234348   2.013   4.958   0.363  0.3132 -1.7443 -1.5903
 9117SOL     OW34349   3.684   6.184   3.499  0.2620 -1.0435  0.2684
 9117SOL    HW134350   3.728   6.125   3.567 -0.5693 -2.5152 -0.4607
 9117SOL    HW234351   3.733   6.178   3.412  0.0326 -0.8256  0.1227
 9118SOL     OW34352   5.178   3.236   3.010  0.2127  0.0666 -0.3824
 9118SOL    HW134353   5.093   3.198   2.974 -0.0352  0.8182 -0.5867
 9118SOL    HW234354   5.197   3.194   3.099 -0.6571  0.2918 -0.0822
 9119SOL     OW34355   1.941   6.838   3.621 -0.2403  0.5058  0.4351
 9119SOL    HW134356   1.891   6.752   3.616  0.1847  0.2897 -0.1162
 9119SOL    HW234357   2.004   6.836   3.700  0.5685 -0.1212 -0.2153
 9120SOL     OW34358   5.543   3.051   3.917  0.3680  0.3073  0.1205
 9120SOL    HW134359   5.619   2.985   3.919  0.1691  0.1171  1.6136
 9120SOL    HW234360   5.573   3.134   3.869  1.6326  0.3694  0.9979
 9121SOL     OW34361   7.022   3.341   3.414  0.0061  0.0819  0.2270
 9121SOL    HW134362   7.039   3.253   3.370 -0.1304  0.1762 -0.0144
 9121SOL    HW234363   7.029   3.414   3.346  0.4683  0.2907  0.4950
 9122SOL     OW34364   5.537   1.438   7.081  0.1179 -0.4698  0.0707
 9122SOL    HW134365   5.500   1.452   7.172 -0.7665  0.4200 -0.4115
 9122SOL    HW234366   5.472   1.386   7.025 -0.3499  0.9217 -0.7151
 9123SOL     OW34367   4.252   3.042   2.997  0.0044  0.5104  0.1251
 9123SOL    HW134368   4.333   2.992   2.968 -1.4450 -2.1546  0.5347
 9123SOL    HW234369   4.208   3.084   2.917  1.9928  2.3813 -0.0385
 9124SOL     OW34370   2.364   6.634   5.622 -0.1366 -0.0337  0.1014
 9124SOL    HW134371   2.445   6.605   5.570 -0.0411  1.3129 -0.5238
 9124SOL    HW234372   2.374   6.605   5.717  1.4332  0.7283  0.2023
 9125SOL     OW34373   2.759   3.397   0.274  0.1971 -0.7449 -0.1171
 9125SOL    HW134374   2.700   3.317   0.260 -0.7207 -0.3094  1.2241
 9125SOL    HW234375   2.816   3.383   0.355 -0.0053 -0.0145  0.1519
 9126SOL     OW34376   6.212   5.909   4.639  0.0429  0.6334 -0.0522
 9126SOL    HW134377   6.246   5.936   4.549 -0.4011  0.0819 -0.3948
 9126SOL    HW234378   6.202   5.989   4.697  0.5551  0.9663 -0.4184
 9127SOL     OW34379   2.293   7.309   6.163 -0.2044  0.0335 -0.4013
 9127SOL    HW134380   2.289   7.376   6.237 -0.8794  0.0641 -0.4559
 9127SOL    HW234381   2.200   7.294   6.127  0.2105  0.5625 -1.7232
 9128SOL     OW34382   1.605   3.853   0.952 -0.1157  0.3531 -0.0742
 9128SOL    HW134383   1.679   3.917   0.970 -0.2378  0.5518 -0.2829
 9128SOL    HW234384   1.618   3.811   0.862 -1.0825  1.5273 -0.7805
 9129SOL     OW34385   0.875   0.936   7.148  0.0500  0.2557 -0.0088
 9129SOL    HW134386   0.884   0.917   7.050  0.2007 -0.6588  0.1819
 9129SOL    HW234387   0.811   0.871   7.189  1.0887 -0.2801  0.7779
 9130SOL     OW34388   5.775   3.699   6.041 -0.1542  0.5743 -0.0993
 9130SOL    HW134389   5.874   3.700   6.024 -0.2114  0.9343 -0.4395
 9130SOL    HW234390   5.740   3.607   6.026 -0.1046  0.7545 -1.4439
 9131SOL     OW34391   4.687   6.861   4.488 -0.3100 -0.2568 -0.4711
 9131SOL    HW134392   4.707   6.889   4.394 -1.7866 -1.8622 -1.2773
 9131SOL    HW234393   4.608   6.912   4.522  0.8430  1.0702  0.2915
 9132SOL     OW34394   1.674   4.297   3.053  0.2824  0.3278  0.1869
 9132SOL    HW134395   1.767   4.270   3.026  0.7006  2.2183 -0.3354
 9132SOL    HW234396   1.629   4.342   2.976 -0.6898  0.3690  0.7757
 9133SOL     OW34397   1.807   4.490   6.771  0.2381  0.3324 -0.2320
 9133SOL    HW134398   1.889   4.486   6.829 -0.4894 -1.2398  0.7293
 9133SOL    HW234399   1.817   4.426   6.695 -0.1990 -0.0892  0.0566
 9134SOL     OW34400   2.247   4.663   3.285  0.0703 -0.6229  0.4734
 9134SOL    HW134401   2.183   4.593   3.316 -0.5900  0.2055  1.0180
 9134SOL    HW234402   2.317   4.677   3.355  0.8685 -1.5478 -0.1337
 9135SOL     OW34403   5.084   3.564   1.360 -0.2969 -0.4303 -0.0807
 9135SOL    HW134404   5.068   3.651   1.315 -2.6230 -2.1190 -2.6955
 9135SOL    HW234405   5.178   3.533   1.341 -0.3021  0.2902 -1.2886
 9136SOL     OW34406   1.593   6.416   6.522  0.1246  0.5302 -0.2623
 9136SOL    HW134407   1.673   6.441   6.467 -0.0185  2.6961  0.4545
 9136SOL    HW234408   1.535   6.353   6.471  2.6479 -1.6597 -0.5158
 9137SOL     OW34409   3.420   3.446   2.093  0.6810  0.1636  0.6438
 9137SOL    HW134410   3.330   3.486   2.112  0.3605  1.4524 -3.1032
 9137SOL    HW234411   3.409   3.366   2.034  2.0496  1.8133 -1.9731
 9138SOL     OW34412   1.447   5.749   0.633 -0.4078  0.1475 -0.1835
 9138SOL    HW134413   1.470   5.839   0.599  0.0464 -0.0359 -0.3583
 9138SOL    HW234414   1.385   5.758   0.711 -0.5533  0.5986 -0.3490
 9139SOL     OW34415   4.933   2.099   4.028  0.6673 -0.1624 -0.0992
 9139SOL    HW134416   4.876   2.147   4.095  0.3248  0.2209 -0.6618
 9139SOL    HW234417   5.004   2.048   4.076 -0.6856 -1.3845  0.6733
 9140SOL     OW34418   2.870   3.164   6.390 -0.2611  0.5825  0.0672
 9140SOL    HW134419   2.913   3.097   6.330  0.0407 -0.5817  1.5517
 9140SOL    HW234420   2.778   3.133   6.413 -0.0955  0.6495  0.8175
 9141SOL     OW34421   2.742   4.793   4.948 -0.1292 -0.3154 -0.0429
 9141SOL    HW134422   2.771   4.796   4.852  0.6803 -2.2439  0.1175
 9141SOL    HW234423   2.802   4.731   4.998  0.1191  1.5023  1.9525
 9142SOL     OW34424   4.194   0.699   5.472 -0.4219 -0.6200 -0.1074
 9142SOL    HW134425   4.179   0.730   5.566 -1.2236 -2.6619  0.4570
 9142SOL    HW234426   4.293   0.692   5.455 -0.2811 -0.8536  0.7764
 9143SOL     OW34427   0.471   3.883   3.195  0.3911 -0.4630 -0.4521
 9143SOL    HW134428   0.375   3.900   3.170 -0.1285 -0.3163  1.5017
 9143SOL    HW234429   0.531   3.914   3.122 -0.9421  2.1211 -0.5046
 9144SOL     OW34430   4.868   2.863   7.170 -0.1798 -0.0115  0.3248
 9144SOL    HW134431   4.773   2.866   7.202 -0.1608  0.5464  0.3286
 9144SOL    HW234432   4.919   2.940   7.209  0.4859 -0.7848  0.9861
 9145SOL     OW34433   4.374   3.940   7.141  0.4430  0.0187  0.3540
 9145SOL    HW134434   4.313   3.942   7.063  0.0136 -1.0035  0.6544
 9145SOL    HW234435   4.329   3.981   7.220 -0.8642 -3.0514  1.2654
 9146SOL     OW34436   1.893   4.582   2.728  0.1002  0.2696 -0.1558
 9146SOL    HW134437   1.965   4.634   2.774  1.0656 -0.7105 -0.5453
 9146SOL    HW234438   1.804   4.610   2.763  0.7377  0.6807  1.1557
 9147SOL     OW34439   0.530   2.418   0.245  0.3458  0.3502  0.2294
 9147SOL    HW134440   0.479   2.373   0.171 -0.1644 -0.0376  0.8069
 9147SOL    HW234441   0.530   2.517   0.231 -1.2692  0.4288  0.6379
 9148SOL     OW34442   7.145   3.315   6.398  0.2713  0.1097  0.3320
 9148SOL    HW134443   7.104   3.254   6.330  0.0345 -0.4359  0.9534
 9148SOL    HW234444   7.189   3.392   6.352 -0.1461 -0.0971 -0.4193
 9149SOL     OW34445   1.496   1.604   0.712  0.2576 -0.2204  0.1109
 9149SOL    HW134446   1.521   1.516   0.671  1.0256 -0.1146  0.3326
 9149SOL    HW234447   1.565   1.673   0.686  0.2172  0.0741  0.7733
 9150SOL     OW34448   2.140   3.880   5.622 -0.2793 -0.2607 -0.7404
 9150SOL    HW134449   2.230   3.922   5.606  0.4431 -1.3237  0.4223
 9150SOL    HW234450   2.071   3.951   5.631  0.4820  0.5810 -1.4412
 9151SOL     OW34451   7.350   6.747   7.277 -0.2392 -0.0101  0.1951
 9151SOL    HW134452   7.422   6.816   7.263 -1.5523  1.1512 -0.9586
 9151SOL    HW234453   7.349   6.685   7.199 -0.8788  0.3389 -0.0762
 9152SOL     OW34454   5.688   4.460   1.854  0.0964  0.3544 -0.4511
 9152SOL    HW134455   5.648   4.368   1.855  0.7817  0.0464 -0.7858
 9152SOL    HW234456   5.629   4.523   1.904 -1.5806  0.2361 -2.2386
 9153SOL     OW34457   4.980   6.435   6.899 -0.1788 -0.0214  0.4381
 9153SOL    HW134458   5.068   6.390   6.915 -0.6886 -1.0695  0.3325
 9153SOL    HW234459   4.908   6.384   6.946 -0.9430 -0.0401 -0.7468
 9154SOL     OW34460   2.375   3.372   5.118  0.0567  0.3692 -0.2656
 9154SOL    HW134461   2.299   3.311   5.140  1.0763  0.5594  4.2656
 9154SOL    HW234462   2.348   3.467   5.131  0.7795  0.4777  0.5154
 9155SOL     OW34463   2.016   5.978   3.699 -0.0807 -0.2773  0.3698
 9155SOL    HW134464   1.976   5.927   3.775  1.2611 -0.1083  1.2065
 9155SOL    HW234465   1.951   5.979   3.622 -1.6804  0.0264  1.6899
 9156SOL     OW34466   3.962   5.684   5.485 -0.5206 -0.1261  0.0279
 9156SOL    HW134467   3.923   5.702   5.576 -0.9874 -0.3736 -0.1207
 9156SOL    HW234468   3.973   5.586   5.472 -0.1995 -0.0761 -0.0789
 9157SOL     OW34469   1.212   1.132   7.129  0.2497 -0.5357  0.1170
 9157SOL    HW134470   1.266   1.209   7.163  1.4926 -1.1690 -0.4062
 9157SOL    HW234471   1.147   1.103   7.199 -1.3050  1.9735 -0.2191
 9158SOL     OW34472   1.492   4.989   4.183  0.2961  0.0919  0.9887
 9158SOL    HW134473   1.577   4.942   4.207  0.3666 -0.9001 -1.1051
 9158SOL    HW234474   1.422   4.921   4.160 -0.6142  0.9346  1.2594
 9159SOL     OW34475   0.769   4.028   1.238 -0.1301  0.5452 -0.1553
 9159SOL    HW134476   0.794   4.037   1.141  1.3148  2.1856  0.3320
 9159SOL    HW234477   0.845   3.988   1.289 -1.0095 -0.6253  0.2634
 9160SOL     OW34478   6.469   2.558   4.686  0.2714 -0.2123  0.1619
 9160SOL    HW134479   6.466   2.616   4.605  0.9091  1.5064  1.3389
 9160SOL    HW234480   6.386   2.504   4.692 -0.3468  0.5996 -0.9522
 9161SOL     OW34481   2.936   0.534   7.136  0.0286  0.7165  0.2822
 9161SOL    HW134482   3.016   0.474   7.139 -0.6308 -0.2692 -1.0704
 9161SOL    HW234483   2.945   0.606   7.205  1.8342  0.3206  0.4753
 9162SOL     OW34484   3.079   0.640   1.489  0.2020 -0.7014  0.6447
 9162SOL    HW134485   3.007   0.671   1.551 -0.5671 -0.4759 -0.3551
 9162SOL    HW234486   3.062   0.545   1.464  1.5859 -1.4263  2.3025
 9163SOL     OW34487   1.911   5.988   3.444  0.0296  0.3172 -0.3836
 9163SOL    HW134488   1.825   5.939   3.428 -0.5100  1.2520 -0.3816
 9163SOL    HW234489   1.953   6.012   3.356 -0.1277  0.5806 -0.3871
 9164SOL     OW34490   2.894   6.474   2.310  0.4166 -0.4195  0.4623
 9164SOL    HW134491   2.857   6.388   2.275  0.7001  0.0633 -1.0555
 9164SOL    HW234492   2.930   6.528   2.234  1.2594  0.5500  1.5374
 9165SOL     OW34493   6.097   1.017   2.377 -0.1841 -1.1206  0.6952
 9165SOL    HW134494   6.155   0.936   2.387  0.9454 -0.5234 -0.9390
 9165SOL    HW234495   6.015   0.993   2.326  0.8663 -0.9275 -1.1347
 9166SOL     OW34496   7.146   2.126   2.222 -0.1332  0.1313 -0.5373
 9166SOL    HW134497   7.144   2.084   2.313  0.9126 -0.4669 -0.7814
 9166SOL    HW234498   7.055   2.159   2.198 -0.5588 -0.3240  0.4452
 9167SOL     OW34499   6.877   4.920   0.539  0.5358  0.2469  0.2559
 9167SOL    HW134500   6.973   4.940   0.517  0.6267  1.4890  1.7080
 9167SOL    HW234501   6.872   4.845   0.605  0.3860 -1.3721 -1.5375
 9168SOL     OW34502   6.145   4.147   2.666  0.3452 -0.5080 -0.2250
 9168SOL    HW134503   6.149   4.208   2.586 -1.2623  1.1286  0.9115
 9168SOL    HW234504   6.106   4.196   2.743  1.2603 -2.2958  1.4037
 9169SOL     OW34505   7.182   2.260   0.849  0.2715  0.0937 -0.4917
 9169SOL    HW134506   7.119   2.269   0.772  1.3005 -0.4964 -1.4063
 9169SOL    HW234507   7.253   2.193   0.827  1.8644  1.5500  0.0963
 9170SOL     OW34508   3.634   4.396   5.296 -0.1040  0.0742  0.1802
 9170SOL    HW134509   3.627   4.297   5.283  0.4788 -0.1980  1.8216
 9170SOL    HW234510   3.619   4.443   5.209 -1.1804 -1.4239 -0.4436
 9171SOL     OW34511   6.295   6.069   0.055 -0.1689 -0.0078 -0.0555
 9171SOL    HW134512   6.368   6.014   0.096  0.3007  0.1259 -0.7169
 9171SOL    HW234513   6.209   6.018   0.060  0.2499 -0.7687 -0.5857
 9172SOL     OW34514   5.898   4.524   2.031 -0.0633 -0.0102 -0.4775
 9172SOL    HW134515   5.905   4.616   2.069  0.2944 -1.0865  2.1865
 9172SOL    HW234516   5.823   4.521   1.965 -2.2673  1.4357  1.8460
 9173SOL     OW34517   0.971   1.980   2.252  0.2762  0.3613 -0.0709
 9173SOL    HW134518   0.954   1.985   2.350  0.9563 -0.0613  0.0725
 9173SOL    HW234519   0.886   1.998   2.202  0.0515  1.1170  0.5836
 9174SOL     OW34520   6.855   2.260   2.251 -0.3819 -0.1279 -0.0572
 9174SOL    HW134521   6.875   2.298   2.160  1.5389  0.2681  0.5010
 9174SOL    HW234522   6.834   2.335   2.314  1.2330 -0.1332  0.5164
 9175SOL     OW34523   3.181   2.222   5.541  0.4262 -0.0547  0.0784
 9175SOL    HW134524   3.204   2.318   5.553  2.4233 -0.3698 -1.0220
 9175SOL    HW234525   3.159   2.204   5.445 -4.8782  0.2698  1.0857
 9176SOL     OW34526   7.345   2.862   2.315  0.2561  0.1130 -0.4353
 9176SOL    HW134527   7.391   2.820   2.237 -1.9125 -4.3484  0.5219
 9176SOL    HW234528   7.256   2.899   2.286  0.4529  0.5290 -0.5123
 9177SOL     OW34529   4.926   1.699   0.103 -0.1815 -0.5428  0.0660
 9177SOL    HW134530   4.960   1.793   0.115 -0.0845 -0.5452 -0.1877
 9177SOL    HW234531   4.960   1.662   0.016 -0.9101 -0.5080 -0.2378
 9178SOL     OW34532   4.718   1.801   4.541 -0.0892 -0.0706 -0.0134
 9178SOL    HW134533   4.747   1.755   4.457  1.5380  0.7769  0.0664
 9178SOL    HW234534   4.781   1.875   4.561 -0.3442 -0.4062  2.0878
 9179SOL     OW34535   6.055   0.751   1.932  0.0476  0.4891 -0.2313
 9179SOL    HW134536   6.011   0.840   1.937  0.6265  0.7323  0.6660
 9179SOL    HW234537   5.987   0.680   1.911 -0.6043  0.9784  0.2250
 9180SOL     OW34538   5.924   3.313   3.614 -0.1419 -0.2483 -0.1852
 9180SOL    HW134539   6.004   3.253   3.622  0.1768  0.2106  0.0788
 9180SOL    HW234540   5.938   3.395   3.670  0.1397  0.8444 -1.8326
 9181SOL     OW34541   4.165   7.247   6.486 -0.3368 -0.3383 -0.4216
 9181SOL    HW134542   4.103   7.298   6.426 -0.9793 -0.3643  0.2090
 9181SOL    HW234543   4.231   7.196   6.431 -0.5481  0.1074 -1.0887
 9182SOL     OW34544   1.663   0.937   5.520  0.0430 -0.4329  0.5477
 9182SOL    HW134545   1.686   0.846   5.485 -1.3529 -1.0551  1.2289
 9182SOL    HW234546   1.564   0.950   5.518  0.2461  1.2173  0.1162
 9183SOL     OW34547   5.713   7.180   3.972  0.1312 -0.3783 -0.0314
 9183SOL    HW134548   5.758   7.258   3.928  0.5091 -0.5512  0.0453
 9183SOL    HW234549   5.737   7.096   3.923 -2.2678 -0.1744 -1.6543
 9184SOL     OW34550   4.632   7.171   4.592  0.3271  0.3812 -0.1906
 9184SOL    HW134551   4.581   7.181   4.507 -0.2756  1.5439  0.2954
 9184SOL    HW234552   4.727   7.199   4.577 -0.1019  1.9271 -0.1584
 9185SOL     OW34553   4.536   6.643   7.083  0.3634  0.4841  0.1818
 9185SOL    HW134554   4.561   6.641   6.987  1.4800 -2.9481  0.4934
 9185SOL    HW234555   4.437   6.658   7.092 -0.6588 -4.2430 -1.7560
 9186SOL     OW34556   1.467   4.553   5.556  0.6251 -0.5093 -0.5181
 9186SOL    HW134557   1.523   4.494   5.614  1.3123  0.2826 -0.3469
 9186SOL    HW234558   1.482   4.529   5.460  0.1807 -1.2274 -0.4098
 9187SOL     OW34559   4.842   3.848   3.369  0.2639  0.3706  0.0159
 9187SOL    HW134560   4.789   3.826   3.450  0.7663 -1.7632 -0.1963
 9187SOL    HW234561   4.870   3.944   3.372 -1.5653  0.8881  1.2712
 9188SOL     OW34562   0.002   6.789   0.493  0.7331  0.4647  0.8085
 9188SOL    HW134563   0.019   6.693   0.473  2.6666  0.7759  0.8662
 9188SOL    HW234564  -0.092   6.812   0.469  0.0118 -1.6261  1.5400
 9189SOL     OW34565   2.487   6.156   4.485 -0.1040 -0.3315  0.3015
 9189SOL    HW134566   2.481   6.129   4.581  0.0698 -1.8846 -0.1049
 9189SOL    HW234567   2.485   6.074   4.427 -2.3990  0.6614 -1.1309
 9190SOL     OW34568   5.372   3.800   1.805  0.3199 -0.4168  0.0319
 9190SOL    HW134569   5.306   3.788   1.879  0.8055  0.1464  0.5635
 9190SOL    HW234570   5.331   3.855   1.733 -0.1831 -1.0316 -0.1558
 9191SOL     OW34571   3.182   3.690   4.785  0.3711  0.0283 -0.0071
 9191SOL    HW134572   3.215   3.694   4.879 -0.3412  0.4475  0.2268
 9191SOL    HW234573   3.083   3.697   4.784  0.5738  5.5104 -1.0226
 9192SOL     OW34574   6.022   1.167   5.041 -0.1998 -0.2620 -0.3944
 9192SOL    HW134575   6.013   1.263   5.068  1.6821 -0.0818 -0.3599
 9192SOL    HW234576   5.949   1.143   4.978 -1.9099  0.6143  1.1958
 9193SOL     OW34577   4.563   1.341   6.383  0.3092  0.2218 -0.7862
 9193SOL    HW134578   4.589   1.308   6.474 -1.4616  0.6363 -0.1162
 9193SOL    HW234579   4.638   1.324   6.319  0.8933 -1.6845  0.3537
 9194SOL     OW34580   2.483   2.310   4.646 -0.4068  0.4666 -0.0237
 9194SOL    HW134581   2.537   2.385   4.683  1.4747 -0.3596 -1.0027
 9194SOL    HW234582   2.467   2.326   4.548  1.2234 -1.0319 -0.5788
 9195SOL     OW34583   1.263   3.963   1.679  0.2474 -0.2306  0.4205
 9195SOL    HW134584   1.321   3.974   1.760  0.8893  0.4861 -0.1382
 9195SOL    HW234585   1.196   3.890   1.697 -0.1933  0.5161  1.9255
 9196SOL     OW34586   4.221   4.336   6.191  0.5681  0.1622 -0.2670
 9196SOL    HW134587   4.125   4.353   6.216  0.7567 -0.9911  1.2932
 9196SOL    HW234588   4.266   4.284   6.263  2.3690  0.6184 -1.0262
 9197SOL     OW34589   4.138   1.147   0.824  0.0086  0.0247  0.4990
 9197SOL    HW134590   4.082   1.138   0.907  0.9894  0.3049  1.1998
 9197SOL    HW234591   4.204   1.221   0.836  1.5010 -1.2421  0.2518
 9198SOL     OW34592   5.787   0.049   6.499 -0.1593  0.0604 -0.2065
 9198SOL    HW134593   5.857   0.115   6.525  2.4168 -2.4630 -0.5095
 9198SOL    HW234594   5.768  -0.012   6.577  0.0891 -1.0349 -0.9856
 9199SOL     OW34595   4.307   5.399   7.150 -0.3617  0.0388  0.0767
 9199SOL    HW134596   4.222   5.366   7.110  0.9621 -1.2596 -1.7834
 9199SOL    HW234597   4.317   5.497   7.131 -1.5782  0.2661  0.5805
 9200SOL     OW34598   3.316   2.985   2.145 -0.2077  0.0695  0.0192
 9200SOL    HW134599   3.237   3.007   2.203  0.0967  2.5729 -0.4509
 9200SOL    HW234600   3.400   3.003   2.195  0.0556  1.2745 -0.8525
 9201SOL     OW34601   1.648   4.585   0.972  0.0889  0.4696 -0.0575
 9201SOL    HW134602   1.561   4.540   0.950  0.4767 -0.1071 -0.4432
 9201SOL    HW234603   1.631   4.671   1.018 -0.7048  0.5743 -0.5469
 9202SOL     OW34604   5.795   3.545   1.713  0.7571  0.8510  0.1461
 9202SOL    HW134605   5.789   3.446   1.703  0.0411  1.0108 -1.1575
 9202SOL    HW234606   5.704   3.585   1.704  0.9438  1.5679  1.4211
 9203SOL     OW34607   3.826   1.431   1.829  0.2904 -0.1892 -0.3949
 9203SOL    HW134608   3.899   1.364   1.840 -0.0531 -0.7573 -1.4909
 9203SOL    HW234609   3.783   1.419   1.740 -0.3988  0.8794 -0.2164
 9204SOL     OW34610   2.920   2.515   1.430 -0.1506 -0.0081  0.3555
 9204SOL    HW134611   2.980   2.435   1.418 -1.7636 -1.2937  0.6690
 9204SOL    HW234612   2.976   2.597   1.443  1.5445 -0.9324 -0.8961
 9205SOL     OW34613   7.253   3.123   1.748  0.0023 -0.9348 -0.6561
 9205SOL    HW134614   7.200   3.142   1.665 -0.9410  0.3022  0.2100
 9205SOL    HW234615   7.222   3.037   1.789 -1.7520  0.0628  0.1502
 9206SOL     OW34616   0.135   0.565   2.661 -0.5702 -0.0652 -0.0347
 9206SOL    HW134617   0.215   0.506   2.648  0.9525  1.9544 -0.2299
 9206SOL    HW234618   0.106   0.602   2.573 -1.4085 -0.3766  0.1056
 9207SOL     OW34619   1.711   5.835   4.090  0.0875 -0.2506 -0.2333
 9207SOL    HW134620   1.747   5.769   4.155 -0.1077  1.3859  1.5600
 9207SOL    HW234621   1.683   5.918   4.138 -1.6680  0.3334 -2.1744
 9208SOL     OW34622   1.499   4.314   0.274 -0.4445  0.2744  0.6637
 9208SOL    HW134623   1.452   4.402   0.279 -2.0926 -0.4421 -1.4341
 9208SOL    HW234624   1.433   4.240   0.281  1.0174 -0.8593  3.2533
 9209SOL     OW34625   0.480   1.614   0.743 -0.3116  0.2009  0.8189
 9209SOL    HW134626   0.520   1.701   0.774  0.3452  0.2743 -0.1949
 9209SOL    HW234627   0.460   1.620   0.645 -0.2720 -0.7892  0.7483
 9210SOL     OW34628   2.395   6.938   5.664 -0.3569  0.0838  0.0679
 9210SOL    HW134629   2.482   6.989   5.662 -1.0711  1.3918  1.4717
 9210SOL    HW234630   2.414   6.841   5.649  1.0501  0.6992 -2.5120
 9211SOL     OW34631   0.909   3.188   1.230 -0.3391 -0.0360  0.5604
 9211SOL    HW134632   0.832   3.170   1.291 -0.0750 -1.2414  0.5572
 9211SOL    HW234633   0.987   3.221   1.284 -0.3424 -0.3805  0.7763
 9212SOL     OW34634   7.065   4.955   5.995  0.2093  0.1022 -0.3702
 9212SOL    HW134635   7.113   5.041   6.004 -0.0710  0.0260  2.0915
 9212SOL    HW234636   6.976   4.970   5.952  0.5512  0.8823 -0.8038
 9213SOL     OW34637   6.943   5.024   3.277 -0.1223  0.2052 -0.3372
 9213SOL    HW134638   6.930   4.962   3.200 -1.1636 -0.7013  0.5608
 9213SOL    HW234639   6.991   4.975   3.351 -2.3026 -0.0077  0.9669
 9214SOL     OW34640   6.940   6.851   1.436  0.1970 -0.0542  0.9611
 9214SOL    HW134641   6.847   6.864   1.470  0.0775  0.5036  0.4236
 9214SOL    HW234642   6.942   6.864   1.337  0.7353 -0.6514  0.8894
 9215SOL     OW34643   1.960   4.765   5.540 -0.1014 -0.3931 -0.8708
 9215SOL    HW134644   1.954   4.846   5.482 -3.6271  0.9943  1.2548
 9215SOL    HW234645   1.987   4.792   5.632 -0.1524 -1.8365 -0.4171
 9216SOL     OW34646   3.863   4.166   3.582  0.3889 -0.6894  0.3951
 9216SOL    HW134647   3.858   4.247   3.524  0.2984 -1.3678 -0.5431
 9216SOL    HW234648   3.780   4.112   3.572 -0.4422  0.1442  2.5712
 9217SOL     OW34649   4.005   3.517   5.282 -0.3703 -0.0195 -0.4579
 9217SOL    HW134650   3.996   3.488   5.377  0.9182  2.1950  0.3682
 9217SOL    HW234651   3.960   3.605   5.270  0.0059  0.0006 -1.7542
 9218SOL     OW34652   5.119   2.904   6.851  0.1411  0.0751 -0.6024
 9218SOL    HW134653   5.062   2.823   6.857  0.6088 -0.3054 -1.2950
 9218SOL    HW234654   5.119   2.939   6.758  1.4917 -0.2669 -0.7467
 9219SOL     OW34655   3.524   4.808   5.076 -0.2331 -0.0709 -0.2717
 9219SOL    HW134656   3.494   4.900   5.102 -0.0432  0.6849 -2.6709
 9219SOL    HW234657   3.604   4.784   5.130 -1.2561  0.4750  1.5703
 9220SOL     OW34658   5.011   7.093   5.260 -0.5161 -0.2243 -0.6363
 9220SOL    HW134659   5.033   7.128   5.351 -1.2129  0.5520 -0.7539
 9220SOL    HW234660   4.954   7.011   5.269 -1.2527  0.3063 -0.3663
 9221SOL     OW34661   4.475   6.776   4.782 -0.1987  0.2706  0.1756
 9221SOL    HW134662   4.469   6.825   4.695  1.3289 -1.1458 -0.7516
 9221SOL    HW234663   4.564   6.733   4.790 -1.0436 -1.2807  1.5539
 9222SOL     OW34664   2.812   2.505   5.714  0.0148  0.3810  0.2410
 9222SOL    HW134665   2.881   2.511   5.787 -0.7952  1.5268  0.9337
 9222SOL    HW234666   2.778   2.411   5.708 -0.2619  0.3706  1.6923
 9223SOL     OW34667   4.915   1.521   5.627 -0.0440  0.0861  0.1448
 9223SOL    HW134668   4.842   1.569   5.578 -1.3655 -1.1649  0.8158
 9223SOL    HW234669   4.949   1.445   5.571 -0.4156 -0.3384  0.4862
 9224SOL     OW34670   6.113   6.181   5.867  0.7807  0.4429  0.4485
 9224SOL    HW134671   6.100   6.141   5.776  0.8388  1.7743 -0.1459
 9224SOL    HW234672   6.149   6.274   5.859  1.1411  0.4453  1.8427
 9225SOL     OW34673   6.751   0.134   2.049 -0.3391 -0.0893 -0.2478
 9225SOL    HW134674   6.757   0.048   1.998  1.2729  0.6840 -1.4061
 9225SOL    HW234675   6.735   0.114   2.146 -1.6193 -1.6260 -0.7526
 9226SOL     OW34676   0.908   2.166   3.853  0.0630 -0.0964  0.0710
 9226SOL    HW134677   0.869   2.257   3.861  1.0375  0.4095 -0.8502
 9226SOL    HW234678   0.986   2.168   3.790  0.7894 -1.3316  0.9007
 9227SOL     OW34679   3.834   4.374   4.244  0.6855 -0.5893  0.2381
 9227SOL    HW134680   3.735   4.380   4.249  0.4871 -2.7728 -0.3997
 9227SOL    HW234681   3.864   4.390   4.150  0.6454 -2.9650 -0.2091
 9228SOL     OW34682   0.191   7.146   6.594 -0.7092 -0.4931 -0.0630
 9228SOL    HW134683   0.290   7.150   6.607 -0.6790  0.0529 -0.4471
 9228SOL    HW234684   0.171   7.122   6.499 -0.9344 -3.2681  0.6445
 9229SOL     OW34685   2.613   4.854   4.466 -0.0338 -0.4575 -0.2994
 9229SOL    HW134686   2.711   4.867   4.482  0.1309 -0.0500 -1.5802
 9229SOL    HW234687   2.579   4.781   4.526  1.0623 -0.6526  0.1017
 9230SOL     OW34688   1.406   2.050   6.672  0.1255 -0.4544 -0.4412
 9230SOL    HW134689   1.494   2.004   6.688 -0.5006 -1.2971  0.6448
 9230SOL    HW234690   1.331   1.986   6.689 -0.7218  0.5030 -0.5130
 9231SOL     OW34691   1.072   5.134   3.711  0.1945  0.3948 -0.2428
 9231SOL    HW134692   1.098   5.211   3.769 -0.0543  0.2661  0.0443
 9231SOL    HW234693   0.983   5.099   3.741  0.5218 -0.2969 -0.0721
 9232SOL     OW34694   4.919   4.215   3.193  0.0523 -0.1326  0.1800
 9232SOL    HW134695   4.971   4.294   3.162  1.1992 -1.0643 -0.3281
 9232SOL    HW234696   4.828   4.216   3.152 -0.0196  1.0239  0.3479
 9233SOL     OW34697   5.731   3.264   4.797  0.2497  0.4276  0.2575
 9233SOL    HW134698   5.811   3.241   4.741 -0.4553  0.4826 -0.8000
 9233SOL    HW234699   5.682   3.180   4.820 -0.5835  0.5775 -0.9372
 9234SOL     OW34700   5.309   6.632   7.061  0.6015  0.2638  0.6402
 9234SOL    HW134701   5.381   6.653   6.994 -0.6873 -0.5900 -1.0687
 9234SOL    HW234702   5.249   6.711   7.071  0.5066  0.2210  0.4096
 9235SOL     OW34703   5.325   3.687   3.982  0.2168  0.3685 -0.4690
 9235SOL    HW134704   5.229   3.680   3.955 -0.1652  1.4647  0.5302
 9235SOL    HW234705   5.362   3.596   4.001 -0.5702 -0.0712 -1.0189
 9236SOL     OW34706   2.402   2.310   1.348  0.0034 -0.2918 -0.1644
 9236SOL    HW134707   2.451   2.246   1.405  1.0389 -0.0584 -0.7865
 9236SOL    HW234708   2.387   2.270   1.257  0.4181  0.2353 -0.4695
 9237SOL     OW34709   6.508   2.461   0.165 -0.5866  0.1764  0.7943
 9237SOL    HW134710   6.487   2.470   0.068 -1.2416 -1.7610  0.7411
 9237SOL    HW234711   6.423   2.462   0.218 -0.3161  0.0103  1.2381
 9238SOL     OW34712   3.352   1.770   2.560  0.0140 -0.0578 -0.6489
 9238SOL    HW134713   3.338   1.681   2.603 -2.0084 -0.3921 -1.9147
 9238SOL    HW234714   3.405   1.758   2.476 -1.1371 -0.2326 -1.3637
 9239SOL     OW34715   6.171   1.663   0.723 -0.1468 -0.2012  0.1061
 9239SOL    HW134716   6.244   1.707   0.670 -0.8003  0.4500 -0.2680
 9239SOL    HW234717   6.174   1.696   0.817  0.9596 -1.2899  0.4582
 9240SOL     OW34718   2.331   5.022   4.419  0.5330 -0.1287  0.4267
 9240SOL    HW134719   2.420   4.980   4.404 -0.0305 -1.2635  0.2026
 9240SOL    HW234720   2.298   5.063   4.333  0.6431 -0.0896  0.4036
 9241SOL     OW34721   1.574   2.424   1.231  0.3079 -0.6567 -0.5637
 9241SOL    HW134722   1.587   2.478   1.148  0.8596 -0.5669 -0.4170
 9241SOL    HW234723   1.623   2.337   1.224 -1.0098 -1.3888 -1.0198
 9242SOL     OW34724   4.810   6.397   1.860 -0.0448  0.1631  0.2662
 9242SOL    HW134725   4.713   6.419   1.862 -0.2015 -0.5830  1.5081
 9242SOL    HW234726   4.863   6.475   1.891 -0.4003 -0.1692  1.7420
 9243SOL     OW34727   6.292   7.083   3.073 -0.6409  0.1775 -0.1342
 9243SOL    HW134728   6.301   7.069   2.974 -0.8364  0.0218 -0.1326
 9243SOL    HW234729   6.353   7.155   3.103  1.8369 -1.9816  0.1633
 9244SOL     OW34730   2.837   5.474   0.614 -0.3884  0.2734  0.5759
 9244SOL    HW134731   2.786   5.389   0.604 -0.7987  0.3388  1.9297
 9244SOL    HW234732   2.935   5.455   0.610 -0.4882 -0.1460  0.0763
 9245SOL     OW34733   6.508   0.397   0.878 -0.2058  0.8717  0.2132
 9245SOL    HW134734   6.537   0.470   0.940 -0.1487  1.2234 -0.2333
 9245SOL    HW234735   6.587   0.342   0.852 -0.0389  1.4466 -0.4981
 9246SOL     OW34736   2.544   6.960   4.138 -0.3198  0.7729 -0.4852
 9246SOL    HW134737   2.588   6.882   4.183 -0.0826  0.1167 -1.8326
 9246SOL    HW234738   2.490   7.011   4.205  1.8858  1.1573  1.0299
 9247SOL     OW34739   1.417   3.827   3.671 -0.7203  0.4737  0.3746
 9247SOL    HW134740   1.415   3.897   3.599 -0.3004  1.1286  0.9983
 9247SOL    HW234741   1.337   3.839   3.731 -0.9403  0.0802  0.1586
 9248SOL     OW34742   3.575   6.351   4.825  0.5098  0.2492  0.2454
 9248SOL    HW134743   3.533   6.368   4.914  1.2404  1.0381  0.4471
 9248SOL    HW234744   3.534   6.270   4.784  0.7024 -0.5748  1.6326
 9249SOL     OW34745   5.502   1.864   4.785 -0.4028  0.6380  0.4098
 9249SOL    HW134746   5.551   1.814   4.714  1.0917  1.1038  1.0860
 9249SOL    HW234747   5.503   1.810   4.870 -3.1238 -0.4223 -0.1701
 9250SOL     OW34748   2.690   4.939   7.094  0.2167 -0.1017 -0.0001
 9250SOL    HW134749   2.761   4.884   7.138 -0.7885 -0.7985  0.7830
 9250SOL    HW234750   2.647   4.886   7.021  1.1385  0.6685 -1.1371
 9251SOL     OW34751   2.270   4.325   5.662 -0.3559  0.2537  0.0766
 9251SOL    HW134752   2.276   4.412   5.612 -0.6432  0.4527  0.3826
 9251SOL    HW234753   2.182   4.320   5.708 -0.5180 -0.4057 -0.3057
 9252SOL     OW34754   1.511   0.613   7.168  0.4394  0.5384  0.3008
 9252SOL    HW134755   1.444   0.540   7.185 -1.0302  1.4841 -1.2440
 9252SOL    HW234756   1.486   0.694   7.222  2.4600 -0.2724  2.5505
 9253SOL     OW34757   4.691   3.976   2.159  0.2310  0.4630 -0.4664
 9253SOL    HW134758   4.760   4.025   2.105 -1.7764  1.5241 -2.1521
 9253SOL    HW234759   4.664   4.032   2.237  0.8820  0.2707 -0.0986
 9254SOL     OW34760   1.966   6.079   4.734  0.4687 -0.5474  0.8369
 9254SOL    HW134761   2.019   6.130   4.666  0.8742  0.3066  1.7831
 9254SOL    HW234762   2.029   6.036   4.799  0.1051 -1.8455  0.3344
 9255SOL     OW34763   0.438   3.666   2.291  0.4209  0.2385  0.0878
 9255SOL    HW134764   0.443   3.631   2.385  1.0341  1.3666  0.4768
 9255SOL    HW234765   0.468   3.761   2.289 -2.4094  1.1394 -0.7817
 9256SOL     OW34766   6.749   7.264   1.896 -0.4152  0.0590 -0.8495
 9256SOL    HW134767   6.679   7.309   1.841 -0.4032 -1.8804 -2.4985
 9256SOL    HW234768   6.779   7.180   1.851  0.9495 -0.6178  1.2096
 9257SOL     OW34769   4.370   5.206   3.435  0.9405 -0.1020 -0.2881
 9257SOL    HW134770   4.310   5.175   3.361 -0.9537 -0.1615  1.2497
 9257SOL    HW234771   4.401   5.299   3.416  0.2126 -0.0039 -1.0183
 9258SOL     OW34772   3.963   0.394   3.281 -0.4954 -0.1133  0.0526
 9258SOL    HW134773   3.994   0.338   3.358 -1.8019  1.9773  2.1669
 9258SOL    HW234774   3.863   0.386   3.272 -0.8363  2.5217  0.9895
 9259SOL     OW34775   1.393   0.286   1.576  0.2471  0.3427 -0.2510
 9259SOL    HW134776   1.393   0.187   1.565 -3.4322  0.3260 -0.5317
 9259SOL    HW234777   1.370   0.329   1.489 -1.2041  1.3177  0.6045
 9260SOL     OW34778   1.695   4.628   1.604  0.2413  0.7806 -0.6991
 9260SOL    HW134779   1.771   4.646   1.666 -0.1367  1.7983 -0.5154
 9260SOL    HW234780   1.729   4.615   1.511  0.6033  1.7035 -0.7014
 9261SOL     OW34781   3.481   2.601   0.272  0.4717 -0.5242  1.1488
 9261SOL    HW134782   3.437   2.682   0.233  0.1167 -0.1315  2.3346
 9261SOL    HW234783   3.576   2.622   0.294  0.9655 -1.0509 -0.4193
 9262SOL     OW34784   6.118   0.969   6.035 -0.0741  0.4676  0.2121
 9262SOL    HW134785   6.176   0.918   5.972 -1.4166  0.6442 -1.2000
 9262SOL    HW234786   6.142   0.946   6.129  0.3259 -1.6425 -0.3845
 9263SOL     OW34787   2.723   1.812   6.791 -0.5956 -0.0601  0.5019
 9263SOL    HW134788   2.692   1.840   6.882  0.9039 -1.3101  1.4140
 9263SOL    HW234789   2.795   1.743   6.799  1.0686  1.3357 -1.5798
 9264SOL     OW34790   7.013   2.986   6.766  0.0143 -0.2071 -0.0273
 9264SOL    HW134791   7.026   3.052   6.691 -0.6608 -1.1141 -0.9640
 9264SOL    HW234792   7.100   2.943   6.788  0.3717  0.6615  0.2681
 9265SOL     OW34793   6.654   4.155   3.761  0.0703  0.2977 -0.0367
 9265SOL    HW134794   6.585   4.192   3.699  0.7624  1.4421 -0.1557
 9265SOL    HW234795   6.646   4.201   3.850 -0.9316 -1.3461  0.7325
 9266SOL     OW34796   0.164   6.929   2.717  0.2281  0.1442 -0.6485
 9266SOL    HW134797   0.259   6.899   2.719 -0.0304 -0.6597 -0.3618
 9266SOL    HW234798   0.106   6.855   2.683 -0.3493  0.4813 -0.3977
 9267SOL     OW34799   7.229   6.244   0.067 -0.4380  0.1859  0.3525
 9267SOL    HW134800   7.254   6.207   0.156 -2.5610 -0.2632  0.7878
 9267SOL    HW234801   7.291   6.319   0.043  2.4090 -2.0258  0.5449
 9268SOL     OW34802   5.763   2.809   4.743 -0.1309 -0.3593  0.0537
 9268SOL    HW134803   5.672   2.846   4.761  0.1553  0.5095 -0.2947
 9268SOL    HW234804   5.769   2.779   4.648  0.1019  0.0204 -0.0514
 9269SOL     OW34805   6.928   0.495   6.659  0.0671  0.1381  0.3981
 9269SOL    HW134806   6.949   0.490   6.562  2.0857  2.7872  0.6445
 9269SOL    HW234807   6.841   0.541   6.673  0.0580  0.2783 -0.1280
 9270SOL     OW34808   0.511   3.865   6.781 -0.4542 -0.0521 -0.4005
 9270SOL    HW134809   0.446   3.854   6.706 -0.5644  0.6398 -0.4029
 9270SOL    HW234810   0.584   3.928   6.753 -1.6205  1.8769  0.8101
 9271SOL     OW34811   3.949   0.816   5.939 -0.6982 -0.2654  0.0471
 9271SOL    HW134812   3.924   0.720   5.952 -0.7211 -0.3797 -0.7739
 9271SOL    HW234813   3.889   0.874   5.994 -1.0142 -0.6925  0.1598
 9272SOL     OW34814   3.788   2.938   0.529  0.3889 -0.0428 -0.1290
 9272SOL    HW134815   3.850   2.955   0.606  1.0660 -0.0859 -0.6583
 9272SOL    HW234816   3.778   3.022   0.476 -0.1007 -0.0063  0.0189
 9273SOL     OW34817   6.100   5.607   3.821 -0.6826  0.5753 -0.0747
 9273SOL    HW134818   6.030   5.601   3.750 -2.1539  1.5491  1.2877
 9273SOL    HW234819   6.146   5.696   3.816  1.1734 -0.4030 -1.5722
 9274SOL     OW34820   6.287   0.556   2.268 -0.7798 -0.5393 -0.4011
 9274SOL    HW134821   6.281   0.471   2.216 -2.0229  0.5537 -2.0865
 9274SOL    HW234822   6.359   0.613   2.230 -0.8455 -0.2725 -0.1271
 9275SOL     OW34823   1.280   1.579   1.730  0.2326 -0.1765  0.3958
 9275SOL    HW134824   1.285   1.611   1.825  0.0342  0.3183  0.2414
 9275SOL    HW234825   1.316   1.650   1.669 -0.7483 -0.0030  0.0062
 9276SOL     OW34826   5.641   6.366   1.471 -0.6083 -0.0532 -0.4151
 9276SOL    HW134827   5.556   6.330   1.509 -0.5506  1.2856  1.0374
 9276SOL    HW234828   5.633   6.465   1.458  1.1119  0.2818  0.8484
 9277SOL     OW34829   2.294   4.545   1.629 -0.4318  0.4009  0.5911
 9277SOL    HW134830   2.251   4.634   1.639 -2.3228 -0.3571 -0.5279
 9277SOL    HW234831   2.348   4.544   1.544 -0.2376  0.5581  0.7138
 9278SOL     OW34832   5.731   7.251   0.569 -0.1088 -0.2934 -0.0244
 9278SOL    HW134833   5.714   7.226   0.474  0.4220  0.2541 -0.2668
 9278SOL    HW234834   5.803   7.192   0.606  0.4698  0.2310 -0.3051
 9279SOL     OW34835   6.941   2.526   5.635  0.0648  0.2035  0.5668
 9279SOL    HW134836   6.886   2.549   5.554  1.9699  1.6320 -0.3610
 9279SOL    HW234837   7.024   2.479   5.606  0.9546  1.0888  1.6633
 9280SOL     OW34838   3.672   3.348   5.825 -0.1562  0.1334 -0.6732
 9280SOL    HW134839   3.690   3.342   5.923  0.3729 -1.4361 -0.8615
 9280SOL    HW234840   3.580   3.387   5.811 -0.1572  0.5551  0.4294
 9281SOL     OW34841   2.874   2.589   1.771  0.3774 -0.8736  0.5018
 9281SOL    HW134842   2.888   2.519   1.840 -0.1860 -2.0318 -0.5382
 9281SOL    HW234843   2.869   2.546   1.680 -1.5096  0.3251 -0.0042
 9282SOL     OW34844   4.420   6.600   0.456  0.4582  0.1351 -0.6684
 9282SOL    HW134845   4.482   6.672   0.425 -2.0123  1.5231 -2.5335
 9282SOL    HW234846   4.470   6.513   0.461  3.1940  1.6947  0.5062
 9283SOL     OW34847   2.148   1.796   1.950 -0.3436  0.1171  0.1319
 9283SOL    HW134848   2.086   1.871   1.973 -1.3733 -1.4744  2.6998
 9283SOL    HW234849   2.135   1.771   1.854 -2.2581  1.1413  0.0997
 9284SOL     OW34850   3.158   3.590   4.490  0.1372  0.4543 -0.1304
 9284SOL    HW134851   3.250   3.585   4.453  0.6620  1.2113  1.0415
 9284SOL    HW234852   3.160   3.637   4.578 -0.7791 -3.0490  1.8348
 9285SOL     OW34853   2.770   6.426   2.743 -0.4785 -0.3950  0.3468
 9285SOL    HW134854   2.854   6.422   2.797 -1.2603  0.7322  1.6685
 9285SOL    HW234855   2.723   6.338   2.749  1.8856 -1.9361 -2.5424
 9286SOL     OW34856   0.235   2.398   4.187 -0.1365  0.3278 -0.1156
 9286SOL    HW134857   0.245   2.311   4.139  0.9267  0.9227 -1.0017
 9286SOL    HW234858   0.138   2.417   4.201 -0.3459 -1.7779  1.5548
 9287SOL     OW34859   2.878   3.604   1.395  0.0614 -0.2471  0.3225
 9287SOL    HW134860   2.934   3.663   1.452 -0.6848  1.5219 -0.7400
 9287SOL    HW234861   2.847   3.654   1.314 -3.7618 -0.8952  1.2761
 9288SOL     OW34862   5.920   2.988   3.357 -0.4064  0.7270 -0.1421
 9288SOL    HW134863   5.879   3.059   3.300  1.8419  1.1230 -1.3381
 9288SOL    HW234864   5.904   2.899   3.315 -1.1034  0.7534  0.0579
 9289SOL     OW34865   7.180   0.526   6.147 -0.1548  0.0015 -0.0754
 9289SOL    HW134866   7.115   0.504   6.074 -1.5658  0.9012  0.8656
 9289SOL    HW234867   7.198   0.625   6.147  0.3396 -0.0844  0.3791
 9290SOL     OW34868   5.639   5.355   7.358  0.0169 -0.0127 -0.2115
 9290SOL    HW134869   5.543   5.384   7.366  0.2812  0.7999  0.1731
 9290SOL    HW234870   5.687   5.416   7.295  0.2634 -0.4555 -0.4498
 9291SOL     OW34871   0.002   7.345   6.739 -0.5990 -0.4259  0.1779
 9291SOL    HW134872   0.069   7.286   6.694 -0.3379  0.7211 -0.9645
 9291SOL    HW234873   0.012   7.338   6.838  1.9797  0.6120  0.0110
 9292SOL     OW34874   4.749   6.794   5.491  0.5028 -0.1377  0.4581
 9292SOL    HW134875   4.667   6.752   5.452  0.4385  1.2374 -0.9336
 9292SOL    HW234876   4.724   6.853   5.567  0.3623 -0.8672  0.9817
 9293SOL     OW34877   6.007   2.122   5.320 -0.4602 -0.3597  0.0756
 9293SOL    HW134878   5.962   2.097   5.234 -1.3424  0.7431  0.2005
 9293SOL    HW234879   5.939   2.157   5.384  0.4528  0.5800  0.5458
 9294SOL     OW34880   3.485   2.167   6.172  0.1553  0.3224  0.1488
 9294SOL    HW134881   3.582   2.192   6.169  0.0155  0.7820 -0.8325
 9294SOL    HW234882   3.476   2.068   6.183  0.7241  0.5411  2.7842
 9295SOL     OW34883   2.912   4.539   3.364  0.6446 -0.3341 -0.2627
 9295SOL    HW134884   2.982   4.505   3.302  0.3269  1.6030 -1.7400
 9295SOL    HW234885   2.923   4.638   3.376  0.2392 -0.5574  2.2011
 9296SOL     OW34886   0.153   7.052   5.224  0.2874  0.0952  0.2076
 9296SOL    HW134887   0.211   7.044   5.143  0.2450 -2.5088  0.4050
 9296SOL    HW234888   0.073   6.993   5.215 -0.2189  0.5124  1.7245
 9297SOL     OW34889   6.381   7.330   3.128  0.1978 -0.2600  0.4123
 9297SOL    HW134890   6.297   7.383   3.144 -0.2022 -0.3056 -1.5211
 9297SOL    HW234891   6.449   7.388   3.083  0.4544 -0.8330  0.0586
 9298SOL     OW34892   2.462   2.368   5.696 -0.3280 -0.1036 -0.1957
 9298SOL    HW134893   2.545   2.313   5.691 -0.3389 -0.1303 -0.0808
 9298SOL    HW234894   2.406   2.337   5.773 -0.1591  0.3082  0.0933
 9299SOL     OW34895   6.958   0.196   5.829  0.1993  0.4103  0.3848
 9299SOL    HW134896   7.024   0.149   5.771 -1.4693  0.4661 -1.6209
 9299SOL    HW234897   6.870   0.148   5.827 -0.0465  0.7140  2.4539
 9300SOL     OW34898   4.459   0.571   0.474  0.4584  0.2109  0.3688
 9300SOL    HW134899   4.551   0.593   0.508 -0.3054  0.4225  2.3432
 9300SOL    HW234900   4.408   0.521   0.544 -1.4669  1.4261 -0.1241
 9301SOL     OW34901   4.919   1.192   4.911 -0.5017  0.2569 -0.8761
 9301SOL    HW134902   4.841   1.251   4.891 -0.9893 -0.6646 -1.7440
 9301SOL    HW234903   4.895   1.130   4.986  0.0194  1.1910  0.0525
 9302SOL     OW34904   6.675   6.698   6.489  0.1842  0.6512 -0.2659
 9302SOL    HW134905   6.594   6.663   6.443 -0.0559 -0.3440  0.9076
 9302SOL    HW234906   6.663   6.692   6.588  1.3494  1.2820 -0.0760
 9303SOL     OW34907   4.664   5.237   3.152 -0.0558 -0.3645 -0.1706
 9303SOL    HW134908   4.683   5.152   3.200 -1.1896 -2.2926 -2.9727
 9303SOL    HW234909   4.565   5.252   3.147  0.0595  0.1320 -1.2887
 9304SOL     OW34910   6.099   2.778   1.294 -0.2896  0.1450  0.3001
 9304SOL    HW134911   6.189   2.823   1.301 -0.5292  0.4572  1.4773
 9304SOL    HW234912   6.066   2.756   1.386 -0.2224 -2.3779 -0.2584
 9305SOL     OW34913   4.502   4.097   3.297  0.0507  0.6014 -0.1808
 9305SOL    HW134914   4.475   4.193   3.308  0.1606  0.3771  2.2929
 9305SOL    HW234915   4.537   4.062   3.384  0.0384 -1.6911 -1.0675
 9306SOL     OW34916   6.354   4.770   0.499 -0.2257 -0.0660 -0.1461
 9306SOL    HW134917   6.318   4.767   0.406 -0.4889 -0.9975 -0.0213
 9306SOL    HW234918   6.280   4.757   0.565  0.2854 -1.9636  0.1142
 9307SOL     OW34919   2.041   1.026   2.906  0.0863  0.1054 -0.4587
 9307SOL    HW134920   1.945   1.003   2.892 -0.1252  1.7377 -1.8764
 9307SOL    HW234921   2.089   1.022   2.818  1.5090 -1.5371  0.3792
 9308SOL     OW34922   4.718   5.030   4.876 -0.3630  0.3455  0.6184
 9308SOL    HW134923   4.730   5.021   4.777 -0.2736  0.7732  0.5867
 9308SOL    HW234924   4.621   5.026   4.899 -0.2817 -1.5985  0.7115
 9309SOL     OW34925   3.887   4.386   3.409  0.4101  0.3268 -0.1491
 9309SOL    HW134926   3.941   4.343   3.337  2.0602  0.5024  0.9423
 9309SOL    HW234927   3.847   4.471   3.375 -0.5457 -0.6403 -1.4654
 9310SOL     OW34928   4.428   3.757   3.684 -0.3010 -0.6142 -0.8106
 9310SOL    HW134929   4.424   3.785   3.780 -0.3000  1.6773 -1.4683
 9310SOL    HW234930   4.338   3.727   3.654 -0.7847  0.7149 -0.6994
 9311SOL     OW34931   2.045   3.489   0.489  0.5020 -0.3780  0.5685
 9311SOL    HW134932   2.099   3.406   0.506  1.0016  0.0778  1.2029
 9311SOL    HW234933   1.949   3.469   0.504  0.6127 -0.8624  0.6564
 9312SOL     OW34934   3.221   6.766   6.167 -0.2282  0.4418  0.5154
 9312SOL    HW134935   3.278   6.774   6.249 -0.0869  0.3478  0.4270
 9312SOL    HW234936   3.217   6.671   6.138  0.7398  0.6382 -0.3034
 9313SOL     OW34937   5.326   4.234   1.548  0.4439 -0.4778  0.2098
 9313SOL    HW134938   5.405   4.221   1.608  1.3496 -2.0907 -1.2595
 9313SOL    HW234939   5.355   4.280   1.464  0.0809 -2.0301 -0.7988
 9314SOL     OW34940   6.338   6.572   2.380 -0.0032  0.7540  0.4043
 9314SOL    HW134941   6.436   6.558   2.395 -0.0190  1.5661  1.3694
 9314SOL    HW234942   6.286   6.525   2.451 -0.2635  1.3333  0.5989
 9315SOL     OW34943   6.398   0.513   5.535  0.0716  0.2391  0.0211
 9315SOL    HW134944   6.320   0.552   5.583 -0.2508  0.6052 -0.7873
 9315SOL    HW234945   6.416   0.567   5.453 -0.4623 -1.3915 -1.1848
 9316SOL     OW34946   3.101   2.655   4.194 -0.0730  0.1055 -0.2291
 9316SOL    HW134947   3.102   2.570   4.141  1.7658  0.3487 -0.6148
 9316SOL    HW234948   3.080   2.634   4.290 -0.1429 -0.7144 -0.4198
 9317SOL     OW34949   4.593   4.795   2.027 -0.0878 -0.2027  0.6447
 9317SOL    HW134950   4.624   4.883   2.062  0.0967 -0.0551  0.1249
 9317SOL    HW234951   4.600   4.725   2.098 -2.7804  0.7583  1.9220
 9318SOL     OW34952   2.514   4.799   5.891  0.4685  0.1684  0.3743
 9318SOL    HW134953   2.550   4.761   5.977  1.1135  0.2766  0.1527
 9318SOL    HW234954   2.415   4.808   5.898  0.3767 -0.9471  0.6726
 9319SOL     OW34955   3.108   4.312   2.835  0.3406 -0.5786  0.2769
 9319SOL    HW134956   3.154   4.388   2.880 -0.0572  0.7263 -1.4555
 9319SOL    HW234957   3.112   4.324   2.735 -2.0733 -1.3969  0.0299
 9320SOL     OW34958   7.203   6.871   5.435 -0.5368  0.0307  0.9446
 9320SOL    HW134959   7.224   6.968   5.426  0.2395 -0.1946  0.3160
 9320SOL    HW234960   7.216   6.843   5.530  0.4873  0.2594  0.8819
 9321SOL     OW34961   4.636   7.104   5.429  0.4431 -0.4119 -0.7830
 9321SOL    HW134962   4.663   7.042   5.502  1.7212 -0.9571 -1.7104
 9321SOL    HW234963   4.616   7.195   5.467  0.9135 -0.7448  0.2518
 9322SOL     OW34964   1.482   1.952   3.767 -0.1241 -0.2570  0.2218
 9322SOL    HW134965   1.462   1.862   3.805  0.7539 -0.9647 -0.9785
 9322SOL    HW234966   1.517   2.011   3.839 -0.5807 -0.9079  0.9890
 9323SOL     OW34967   2.323   7.204   7.287 -0.8521 -0.0918 -1.0087
 9323SOL    HW134968   2.234   7.236   7.253 -1.9674 -1.9741  0.0667
 9323SOL    HW234969   2.379   7.283   7.312 -2.9437  1.0965  0.1132
 9324SOL     OW34970   4.738   0.138   2.187  0.6314 -0.2038  0.4711
 9324SOL    HW134971   4.662   0.109   2.245 -0.3934  0.1571 -0.6704
 9324SOL    HW234972   4.739   0.083   2.103  2.3756 -1.0349  1.0057
 9325SOL     OW34973   3.114   1.758   0.596  0.2906  0.4185 -0.5146
 9325SOL    HW134974   3.191   1.696   0.613  0.4734  0.4081 -1.3844
 9325SOL    HW234975   3.072   1.783   0.683 -0.6827 -2.0613 -0.2111
 9326SOL     OW34976   2.583   1.237   1.030  0.0178 -0.1862 -0.3712
 9326SOL    HW134977   2.665   1.293   1.018  0.8709 -1.5193 -0.9425
 9326SOL    HW234978   2.508   1.293   1.063  1.6243  0.7249  1.7900
 9327SOL     OW34979   1.968   3.542   6.881 -0.5020  0.6074 -0.0218
 9327SOL    HW134980   1.992   3.467   6.943 -3.4617  0.8770  1.5410
 9327SOL    HW234981   1.894   3.513   6.821 -1.5116  2.1743  0.4411
 9328SOL     OW34982   5.334   1.895   4.529  0.2442 -0.4874  0.1291
 9328SOL    HW134983   5.341   1.898   4.629  1.6579 -4.1619  0.2257
 9328SOL    HW234984   5.251   1.847   4.502  0.1681 -0.0353 -0.4582
 9329SOL     OW34985   2.511   2.748   1.031 -0.3751 -0.1027  0.1726
 9329SOL    HW134986   2.568   2.756   0.949  2.8633  0.6686  2.4286
 9329SOL    HW234987   2.441   2.820   1.029  0.1607  0.4082 -1.5403
 9330SOL     OW34988   4.839   2.791   5.204 -0.0515 -0.2685  0.1211
 9330SOL    HW134989   4.825   2.872   5.147 -0.9534 -0.2258  0.4025
 9330SOL    HW234990   4.772   2.790   5.278 -1.8235 -2.6748 -1.4352
 9331SOL     OW34991   3.197   2.393   6.487 -0.1837  0.0835 -0.1929
 9331SOL    HW134992   3.296   2.407   6.492 -0.3831  1.7452 -0.5566
 9331SOL    HW234993   3.178   2.300   6.454  1.2456 -0.4050  0.3163
 9332SOL     OW34994   4.365   4.795   5.426  0.8596 -0.2664 -0.3977
 9332SOL    HW134995   4.412   4.861   5.485  1.1538 -1.6639  0.9712
 9332SOL    HW234996   4.430   4.759   5.358  1.2473 -0.6516  0.1665
 9333SOL     OW34997   6.432   5.431   4.510  0.1111 -0.6653 -0.1073
 9333SOL    HW134998   6.402   5.524   4.491  2.4593  0.0554 -0.5154
 9333SOL    HW234999   6.398   5.402   4.600  0.5672  1.1462  0.6789
 9334SOL     OW35000   3.662   0.649   5.227  0.9567  0.2016 -0.7790
 9334SOL    HW135001   3.640   0.712   5.152 -1.0705 -0.7319 -1.0131
 9334SOL    HW235002   3.690   0.702   5.307 -0.4728  1.4000 -1.0422
 9335SOL     OW35003   1.208   2.959   1.062  0.4122  0.1275  0.1662
 9335SOL    HW135004   1.242   3.034   1.118  1.0900 -0.4432  0.5212
 9335SOL    HW235005   1.254   2.874   1.088  0.2055 -0.2735 -0.7516
 9336SOL     OW35006   6.237   6.232   2.442 -0.1203  0.2484 -0.4056
 9336SOL    HW135007   6.204   6.317   2.483 -0.3055  1.3818 -2.8536
 9336SOL    HW235008   6.283   6.252   2.355  1.1096 -2.0059 -0.3241
 9337SOL     OW35009   7.175   0.267   5.181 -0.3385 -0.2531  0.4877
 9337SOL    HW135010   7.244   0.227   5.120 -0.5260 -1.6641  1.2016
 9337SOL    HW235011   7.145   0.199   5.248 -0.2408  1.2474  2.0829
 9338SOL     OW35012   3.194   3.736   6.203 -0.4337 -0.4401 -0.3014
 9338SOL    HW135013   3.141   3.821   6.199 -0.7387 -0.6629 -1.1515
 9338SOL    HW235014   3.225   3.720   6.297  0.7228  1.2839 -0.3692
 9339SOL     OW35015   2.217   2.845   0.816 -0.0804  0.1048 -0.3199
 9339SOL    HW135016   2.178   2.854   0.907 -1.5286  0.0279 -0.9174
 9339SOL    HW235017   2.147   2.811   0.753  0.3847  1.8714 -1.8390
 9340SOL     OW35018   2.845   1.901   0.532  0.6623 -0.9307 -0.2860
 9340SOL    HW135019   2.880   1.979   0.585  0.1241  0.3408 -1.7648
 9340SOL    HW235020   2.920   1.859   0.481  0.8780 -1.1207  0.1863
 9341SOL     OW35021   3.563   5.792   6.838 -0.3419  0.5533  0.5592
 9341SOL    HW135022   3.614   5.762   6.757 -0.7449  0.6722  0.2564
 9341SOL    HW235023   3.617   5.775   6.920 -0.1093  0.0180  0.2991
 9342SOL     OW35024   2.392   7.210   4.800  0.1131  0.2245  0.1206
 9342SOL    HW135025   2.384   7.167   4.890 -0.2589  0.0596  0.0081
 9342SOL    HW235026   2.452   7.290   4.807 -0.7316  0.8064  0.7232
 9343SOL     OW35027   2.028   2.324   1.952 -0.1957  0.3784 -0.0586
 9343SOL    HW135028   1.999   2.344   2.046  0.4151  0.9136  0.0201
 9343SOL    HW235029   2.086   2.399   1.919 -0.4946  0.2368 -0.8985
 9344SOL     OW35030   3.543   4.716   6.525 -0.5822 -0.1818  0.6551
 9344SOL    HW135031   3.629   4.704   6.475 -1.6138 -0.0507 -1.2027
 9344SOL    HW235032   3.540   4.808   6.565  0.3071 -0.3212  1.0312
 9345SOL     OW35033   4.245   2.647   5.505  0.4433 -0.5624 -0.2533
 9345SOL    HW135034   4.298   2.645   5.590  1.1896 -0.3531 -0.7080
 9345SOL    HW235035   4.268   2.731   5.455  1.0791 -1.3918 -1.3482
 9346SOL     OW35036   1.356   7.146   0.950  0.0858 -0.5855  0.1050
 9346SOL    HW135037   1.362   7.245   0.961  1.1194 -0.3744 -2.0749
 9346SOL    HW235038   1.383   7.101   1.036 -2.2108  1.0072  1.7039
 9347SOL     OW35039   4.383   5.879   1.919 -0.6031 -0.2879  0.6344
 9347SOL    HW135040   4.369   5.817   1.996 -2.5508  0.0337  0.5740
 9347SOL    HW235041   4.294   5.900   1.877  0.4488 -0.9081 -2.0450
 9348SOL     OW35042   3.572   5.188   1.671  0.2549 -0.1369  0.8549
 9348SOL    HW135043   3.652   5.149   1.625 -0.7703 -0.5257 -0.6291
 9348SOL    HW235044   3.553   5.136   1.754 -1.2500 -3.0638 -1.2184
 9349SOL     OW35045   3.298   5.677   5.393  0.4525  0.1195 -0.4634
 9349SOL    HW135046   3.340   5.762   5.425 -0.8509  0.0452  1.5341
 9349SOL    HW235047   3.232   5.645   5.461  0.5987 -2.2640 -1.3964
 9350SOL     OW35048   6.462   6.403   3.176  0.4451  0.5263  0.3388
 9350SOL    HW135049   6.557   6.434   3.178  1.0011 -1.1402  1.4946
 9350SOL    HW235050   6.421   6.417   3.266  0.0560 -0.1110  0.2596
 9351SOL     OW35051   4.676   6.812   0.887 -0.3384 -0.1546 -0.2384
 9351SOL    HW135052   4.701   6.876   0.960 -1.1055  0.1550 -0.2472
 9351SOL    HW235053   4.620   6.860   0.819  1.6247 -0.0287 -1.8172
 9352SOL     OW35054   3.564   5.040   1.181  0.2313  0.0903  0.0760
 9352SOL    HW135055   3.557   5.003   1.088 -0.3624  2.1598 -0.7582
 9352SOL    HW235056   3.655   5.021   1.218  1.1792  0.9430 -1.7158
 9353SOL     OW35057   5.407   2.950   6.839  0.0864  0.6064  0.4714
 9353SOL    HW135058   5.312   2.920   6.846 -0.2345  1.3995 -0.4547
 9353SOL    HW235059   5.460   2.907   6.911 -0.9112 -0.0965  0.7996
 9354SOL     OW35060   2.582   4.344   1.296  0.7707  0.1484 -0.6569
 9354SOL    HW135061   2.551   4.253   1.268  2.2078 -1.1910  1.8648
 9354SOL    HW235062   2.667   4.366   1.248  0.6492 -0.0399 -0.9591
 9355SOL     OW35063   1.472   5.556   0.211 -0.4048 -0.1064 -0.0934
 9355SOL    HW135064   1.428   5.590   0.128 -1.1299 -0.5117  0.1313
 9355SOL    HW235065   1.496   5.634   0.269  1.9164  0.3505 -1.5692
 9356SOL     OW35066   1.772   1.974   4.242  0.5949  0.0246 -0.2574
 9356SOL    HW135067   1.800   2.043   4.309 -0.8376 -1.2247  1.6748
 9356SOL    HW235068   1.849   1.913   4.224  1.2836  0.9464 -0.5140
 9357SOL     OW35069   3.713   5.028   3.811  0.3174  0.3562 -0.3796
 9357SOL    HW135070   3.628   4.976   3.812  0.6773 -0.2105  1.3776
 9357SOL    HW235071   3.723   5.078   3.897  1.2334  1.2893 -1.0191
 9358SOL     OW35072   6.079   6.581   1.497 -0.1631  0.6593  0.3748
 9358SOL    HW135073   6.073   6.491   1.454 -0.9619 -0.1533  2.1374
 9358SOL    HW235074   6.017   6.645   1.451 -0.2039  0.0931 -0.3590
 9359SOL     OW35075   1.898   6.770   7.200  0.2295 -0.4403 -0.0826
 9359SOL    HW135076   1.867   6.676   7.182 -1.2048  0.1106 -0.5856
 9359SOL    HW235077   1.866   6.830   7.127  1.0582  0.4656  0.2910
 9360SOL     OW35078   6.959   2.747   2.654  0.3695 -0.5922 -0.6053
 9360SOL    HW135079   7.044   2.738   2.706 -0.2305  1.1723  0.7348
 9360SOL    HW235080   6.975   2.723   2.558  1.4055 -4.2565  0.4305
 9361SOL     OW35081   7.275   3.615   5.623  0.1908 -0.3477 -0.6692
 9361SOL    HW135082   7.298   3.604   5.720  0.2808 -1.9626 -0.8724
 9361SOL    HW235083   7.176   3.612   5.612  0.0104  2.4540 -0.3255
 9362SOL     OW35084   4.012   5.108   3.766  0.5709 -0.4662 -0.5557
 9362SOL    HW135085   4.032   5.014   3.793 -0.1324 -0.1517  1.1144
 9362SOL    HW235086   3.934   5.142   3.817  1.6489  1.4762 -0.1342
 9363SOL     OW35087   0.466   6.035   1.168 -0.2595 -0.3156 -0.0479
 9363SOL    HW135088   0.393   6.071   1.111  0.4425 -0.0556 -0.8061
 9363SOL    HW235089   0.444   6.049   1.264 -0.6276  0.8915 -0.2993
 9364SOL     OW35090   3.831   3.135   3.390  0.5064  0.0141 -0.0820
 9364SOL    HW135091   3.827   3.077   3.471  0.2443  0.3112  0.1185
 9364SOL    HW235092   3.742   3.135   3.345  0.7857 -0.5400 -0.6469
 9365SOL     OW35093   0.820   5.184   7.264 -0.1841 -0.7132 -0.4274
 9365SOL    HW135094   0.787   5.199   7.171  0.1353 -0.5838 -0.5210
 9365SOL    HW235095   0.869   5.265   7.296 -0.3913 -0.7135 -0.1036
 9366SOL     OW35096   4.823   1.206   0.358  0.2245  0.0193 -0.9374
 9366SOL    HW135097   4.761   1.283   0.368  1.2668  0.7114  0.4099
 9366SOL    HW235098   4.791   1.146   0.285 -2.8410 -0.4313  0.7183
 9367SOL     OW35099   0.538   5.852   7.252  0.4308 -0.8776 -0.4722
 9367SOL    HW135100   0.600   5.896   7.317  0.1947 -1.5796  0.2214
 9367SOL    HW235101   0.568   5.874   7.159 -0.0042  1.2400 -0.1557
 9368SOL     OW35102   1.960   3.746   0.416 -0.1616 -0.0237 -0.3818
 9368SOL    HW135103   1.985   3.653   0.444 -1.7595 -0.2566  0.3130
 9368SOL    HW235104   1.965   3.807   0.495 -0.7868  0.1321 -0.4611
 9369SOL     OW35105   3.438   7.351   5.151  0.3654  0.0560 -0.1829
 9369SOL    HW135106   3.369   7.304   5.096  0.2566 -1.5090  1.2453
 9369SOL    HW235107   3.404   7.365   5.244  1.5668  0.2284  0.2466
 9370SOL     OW35108   5.579   3.254   5.714  0.0771  0.5486  0.1846
 9370SOL    HW135109   5.510   3.325   5.707  0.8571  1.3048  0.1000
 9370SOL    HW235110   5.607   3.225   5.622  0.2906  0.6602  0.2122
 9371SOL     OW35111   1.093   0.821   6.040  0.1927 -0.3075 -0.0316
 9371SOL    HW135112   1.189   0.851   6.048  0.1714  0.0914 -1.2131
 9371SOL    HW235113   1.066   0.820   5.944 -1.6512  1.6797  0.4125
 9372SOL     OW35114   5.410   0.709   5.297 -0.7490 -0.1916 -0.2035
 9372SOL    HW135115   5.366   0.676   5.381 -0.9685 -0.6515 -0.4969
 9372SOL    HW235116   5.364   0.670   5.217 -0.6653  0.4093 -0.5430
 9373SOL     OW35117   0.705   1.955   1.486 -0.0645 -0.2903  0.5479
 9373SOL    HW135118   0.777   1.965   1.417 -0.9700 -1.2063 -0.5392
 9373SOL    HW235119   0.699   2.039   1.539 -1.2128  1.5389 -2.3163
 9374SOL     OW35120   4.524   2.107   7.055 -0.1296 -0.1473 -0.3394
 9374SOL    HW135121   4.426   2.088   7.049 -0.0720 -0.8129  0.6999
 9374SOL    HW235122   4.542   2.166   7.134  0.6180 -2.3725  1.2205
 9375SOL     OW35123   5.299   3.046   5.778  0.0877  0.0944  0.0913
 9375SOL    HW135124   5.209   3.081   5.754  1.2372  1.6636 -2.0751
 9375SOL    HW235125   5.319   3.067   5.873 -1.0980  1.2889  0.0832
 9376SOL     OW35126   2.182   0.981   1.730  0.9435  0.4482 -0.6254
 9376SOL    HW135127   2.112   1.037   1.774  0.1006 -0.9138 -0.2083
 9376SOL    HW235128   2.140   0.925   1.659  1.8352  0.5373 -1.2358
 9377SOL     OW35129   4.021   0.116   4.711 -0.5352  0.1614  0.4032
 9377SOL    HW135130   3.975   0.049   4.769  1.1642 -1.7650 -0.4168
 9377SOL    HW235131   3.953   0.181   4.675 -2.0849 -0.6024  1.8778
 9378SOL     OW35132   6.856   5.554   5.798  0.2761 -0.3012 -0.1234
 9378SOL    HW135133   6.783   5.590   5.741 -0.8237  0.0871  1.4940
 9378SOL    HW235134   6.870   5.457   5.778 -0.2518 -0.2238 -0.8701
 9379SOL     OW35135   4.510   1.551   0.667 -0.0569  0.0348  1.1883
 9379SOL    HW135136   4.469   1.561   0.758 -1.4987  0.0656  0.5488
 9379SOL    HW235137   4.438   1.540   0.599  1.0218 -0.2658  0.0722
 9380SOL     OW35138   2.542   3.224   5.290 -0.9223  0.3713  0.2680
 9380SOL    HW135139   2.626   3.200   5.241 -0.1024  0.2860  1.6873
 9380SOL    HW235140   2.480   3.271   5.228  0.4522  1.0290 -0.6418
 9381SOL     OW35141   4.114   5.829   3.011  0.3124  0.1894  0.3809
 9381SOL    HW135142   4.211   5.836   3.032 -0.0522 -0.1120  2.2170
 9381SOL    HW235143   4.093   5.736   2.981  0.0350 -0.6342  3.0265
 9382SOL     OW35144   5.240   2.333   4.202 -1.1056 -0.3058 -0.5999
 9382SOL    HW135145   5.329   2.307   4.165  0.1015  1.2677  1.1123
 9382SOL    HW235146   5.198   2.401   4.141  0.0819  0.9476 -0.0619
 9383SOL     OW35147   5.153   1.980   2.529 -0.1752  0.0351  0.3285
 9383SOL    HW135148   5.204   1.926   2.596 -0.0950 -0.8809 -0.4653
 9383SOL    HW235149   5.058   1.988   2.559  0.5166  2.2243  2.1013
 9384SOL     OW35150   2.632   1.944   7.273  0.1073 -0.1447 -0.5466
 9384SOL    HW135151   2.621   1.855   7.316 -1.0593 -0.1933 -0.9146
 9384SOL    HW235152   2.563   2.007   7.310 -1.4816 -0.4153 -2.9075
 9385SOL     OW35153   6.829   1.456   4.367  0.0617 -0.3467 -0.0883
 9385SOL    HW135154   6.917   1.440   4.413 -0.6533 -1.2780  0.9781
 9385SOL    HW235155   6.840   1.441   4.269  1.8265  2.5703 -0.3742
 9386SOL     OW35156   6.464   6.642   5.814  0.1207  0.7081  0.2772
 9386SOL    HW135157   6.503   6.724   5.772 -0.4803  0.5129 -0.6761
 9386SOL    HW235158   6.410   6.669   5.894  3.3363  0.8493  2.4796
 9387SOL     OW35159   0.653   6.344   4.009  0.4280 -0.3429  0.1919
 9387SOL    HW135160   0.644   6.417   3.942  1.0265 -0.3025  0.1562
 9387SOL    HW235161   0.729   6.363   4.071  1.8032 -1.8484 -0.9906
 9388SOL     OW35162   6.304   7.116   0.242  0.2239  0.2110 -0.1555
 9388SOL    HW135163   6.396   7.154   0.240 -0.1665  1.1059 -1.3819
 9388SOL    HW235164   6.306   7.022   0.208  0.8620 -0.1655  0.9094
 9389SOL     OW35165   4.095   6.016   0.737 -0.8294  0.7203 -0.1146
 9389SOL    HW135166   4.041   5.993   0.818  2.0370  0.0508  1.6699
 9389SOL    HW235167   4.130   6.109   0.747  1.3686 -0.1424  0.5095
 9390SOL     OW35168   2.557   2.906   6.855 -0.4544 -1.3696  0.0504
 9390SOL    HW135169   2.613   2.929   6.935 -0.5601 -1.9923  0.3036
 9390SOL    HW235170   2.460   2.909   6.880 -0.6099  1.1455 -0.7550
 9391SOL     OW35171   2.116   0.119   2.326 -0.2854  0.6688 -0.0059
 9391SOL    HW135172   2.121   0.129   2.426 -1.7693 -0.3772  0.1886
 9391SOL    HW235173   2.136   0.207   2.283  0.7104  1.0432  1.2001
 9392SOL     OW35174   3.195   6.190   5.094 -0.0801  0.1428  1.1404
 9392SOL    HW135175   3.193   6.091   5.107 -2.4031 -0.1453 -1.0024
 9392SOL    HW235176   3.113   6.230   5.135 -0.0585  0.9498  0.4134
 9393SOL     OW35177   4.328   5.427   5.611 -0.1672 -0.3474 -0.2598
 9393SOL    HW135178   4.380   5.512   5.619 -0.3403 -0.1280 -1.3686
 9393SOL    HW235179   4.309   5.390   5.702 -0.0547  0.7771  0.2212
 9394SOL     OW35180   6.945   3.604   7.234 -0.0753  0.7711 -0.1190
 9394SOL    HW135181   6.902   3.519   7.265 -0.0747  0.0589 -2.0041
 9394SOL    HW235182   6.875   3.668   7.205  0.0535 -0.0367 -2.2997
 9395SOL     OW35183   5.008   3.846   4.230 -0.3940 -0.0481 -0.7736
 9395SOL    HW135184   4.914   3.838   4.263 -0.2239  0.5680 -0.1389
 9395SOL    HW235185   5.014   3.918   4.162  0.0318  1.3861  0.7508
 9396SOL     OW35186   6.014   0.628   5.208  0.2484  0.3657  0.1729
 9396SOL    HW135187   6.093   0.625   5.146  0.2244  0.7472  0.1256
 9396SOL    HW235188   5.983   0.722   5.219 -0.1760  0.2195  0.2274
 9397SOL     OW35189   1.530   7.213   5.845 -0.2419 -0.5576  0.3925
 9397SOL    HW135190   1.534   7.265   5.930  0.6525 -1.0977  0.6888
 9397SOL    HW235191   1.610   7.153   5.839  0.4166  0.4744 -1.4699
 9398SOL     OW35192   0.679   7.326   5.152  0.5493  0.0935  0.8592
 9398SOL    HW135193   0.706   7.422   5.140 -1.1034  0.3311 -1.4576
 9398SOL    HW235194   0.599   7.321   5.212  1.8924 -0.0597  2.6835
 9399SOL     OW35195   2.000   4.059   6.446  0.1251  0.2199  0.0928
 9399SOL    HW135196   2.010   4.028   6.541 -1.1294 -0.2539  0.0809
 9399SOL    HW235197   1.993   3.980   6.386 -2.4460  0.4959 -0.0154
 9400SOL     OW35198   0.788   4.209   5.211 -0.0858  0.0968 -0.4820
 9400SOL    HW135199   0.839   4.294   5.195  0.3727 -0.2704 -0.9831
 9400SOL    HW235200   0.695   4.219   5.176 -0.9208  1.3885  1.9884
 9401SOL     OW35201   4.199   3.317   2.222 -0.3812  0.7785 -0.0042
 9401SOL    HW135202   4.129   3.251   2.194  1.8991 -1.1278 -1.4865
 9401SOL    HW235203   4.227   3.299   2.316 -1.4920  1.1989  0.4088
 9402SOL     OW35204   3.757   2.674   3.798 -0.2453  0.0630 -0.4528
 9402SOL    HW135205   3.850   2.637   3.804  0.0092  0.5227 -1.4503
 9402SOL    HW235206   3.732   2.716   3.885  0.4892 -0.0490 -0.1849
 9403SOL     OW35207   0.353   0.380   2.578 -0.0022  0.4585  0.0085
 9403SOL    HW135208   0.364   0.369   2.479  1.9405 -0.2161  0.2732
 9403SOL    HW235209   0.436   0.423   2.616  1.6530 -4.2013  2.0942
 9404SOL     OW35210   2.441   5.277   7.236  0.2783 -0.1700  0.4649
 9404SOL    HW135211   2.421   5.297   7.332 -2.1555 -0.8027  0.1442
 9404SOL    HW235212   2.426   5.180   7.219 -1.0985  0.2640 -0.9399
 9405SOL     OW35213   2.415   5.186   1.733 -0.5551  0.4702 -0.1672
 9405SOL    HW135214   2.448   5.092   1.737 -0.0699  0.6276 -0.3427
 9405SOL    HW235215   2.460   5.240   1.805 -1.1584  0.4707  0.2171
 9406SOL     OW35216   5.431   4.611   4.274  0.2343 -0.3972 -0.1963
 9406SOL    HW135217   5.345   4.572   4.241  0.1120  0.5097 -0.9668
 9406SOL    HW235218   5.499   4.607   4.201 -0.6397  3.5312 -1.3224
 9407SOL     OW35219   3.706   6.009   1.068  0.5813  0.3260  0.5181
 9407SOL    HW135220   3.633   6.069   1.035  1.1038  0.6457 -0.0684
 9407SOL    HW235221   3.668   5.942   1.132 -0.6252 -0.8946 -1.4234
 9408SOL     OW35222   2.806   7.136   1.546  0.0445  0.1300 -0.6990
 9408SOL    HW135223   2.822   7.181   1.634  0.9703  0.7331 -1.1668
 9408SOL    HW235224   2.722   7.172   1.505  0.8760  1.5997 -1.1540
 9409SOL     OW35225   0.014   3.936   3.324 -0.4214 -0.3368 -0.2101
 9409SOL    HW135226  -0.052   3.878   3.371 -0.7605  1.6103  1.7899
 9409SOL    HW235227  -0.027   3.976   3.242 -0.8982 -1.1180 -0.3519
 9410SOL     OW35228   0.130   3.913   0.145  0.0443 -0.2682  0.2148
 9410SOL    HW135229   0.048   3.954   0.104  1.5905  1.7000 -1.0264
 9410SOL    HW235230   0.206   3.919   0.079  0.8822 -3.1980  0.8544
 9411SOL     OW35231   2.383   2.127   1.759  0.6155  0.1933  0.4395
 9411SOL    HW135232   2.334   2.063   1.700  1.4145  0.6628 -0.7397
 9411SOL    HW235233   2.401   2.083   1.847  1.8655 -1.5257 -0.6264
 9412SOL     OW35234   3.577   6.719   0.818  0.4487 -0.2746 -0.1066
 9412SOL    HW135235   3.604   6.689   0.909  1.3855  2.2919  0.4895
 9412SOL    HW235236   3.656   6.711   0.756  0.5482  0.4473 -0.0713
 9413SOL     OW35237   4.840   1.609   6.022  0.0330 -0.4865 -0.3163
 9413SOL    HW135238   4.896   1.604   6.105  0.6589  1.6284 -0.5971
 9413SOL    HW235239   4.752   1.652   6.044 -0.6457 -1.8403 -0.3272
 9414SOL     OW35240   2.774   3.315   1.246 -0.4127  0.1417 -0.1387
 9414SOL    HW135241   2.817   3.344   1.331 -1.1815  1.2623 -0.1141
 9414SOL    HW235242   2.680   3.350   1.243 -1.2422 -2.0219 -0.3000
 9415SOL     OW35243   6.622   5.377   1.056 -0.2959  0.2661  0.0411
 9415SOL    HW135244   6.585   5.419   1.139 -1.2202  1.4372 -0.9528
 9415SOL    HW235245   6.613   5.278   1.062  0.6448  0.2519  1.8136
 9416SOL     OW35246   1.196   3.415   7.019  0.2397 -0.2506  0.1676
 9416SOL    HW135247   1.115   3.402   7.076 -0.4241 -1.8922 -1.0943
 9416SOL    HW235248   1.176   3.480   6.946  0.0567 -0.6367 -0.1291
 9417SOL     OW35249   5.453   6.413   2.892  0.0059 -0.4765  0.3436
 9417SOL    HW135250   5.404   6.331   2.922 -1.5858  0.4204  0.3113
 9417SOL    HW235251   5.444   6.422   2.792 -0.7492  0.2789  0.4671
 9418SOL     OW35252   5.562   7.198   0.073  0.7430 -0.3183 -0.4006
 9418SOL    HW135253   5.622   7.271   0.041 -0.4378  0.2264 -1.4258
 9418SOL    HW235254   5.569   7.119   0.012 -1.9013  0.9132 -2.4551
 9419SOL     OW35255   4.222   6.597   0.047  0.2737  0.3954 -0.2598
 9419SOL    HW135256   4.281   6.615  -0.032  1.1156  0.1449  0.2994
 9419SOL    HW235257   4.217   6.679   0.104  2.4473 -0.4326  1.2090
 9420SOL     OW35258   1.937   2.816   0.792  0.3413 -0.3345  0.6668
 9420SOL    HW135259   1.951   2.722   0.759 -2.6623 -1.7122  2.9952
 9420SOL    HW235260   1.897   2.871   0.719 -0.6688 -1.6936  0.1726
 9421SOL     OW35261   4.022   3.362   5.583  0.1809  0.1095 -0.0192
 9421SOL    HW135262   4.029   3.382   5.680  0.1422  0.9861 -0.1958
 9421SOL    HW235263   3.985   3.270   5.571  1.1551 -0.4091  0.8013
 9422SOL     OW35264   3.688   0.688   2.168  0.3631  0.2356 -0.1917
 9422SOL    HW135265   3.742   0.606   2.185  2.4034  1.3750 -0.9765
 9422SOL    HW235266   3.697   0.716   2.073  1.1772  2.3630  0.4586
 9423SOL     OW35267   5.192   5.728   2.353  0.1537  0.1331 -0.3596
 9423SOL    HW135268   5.212   5.665   2.428 -0.8653  0.3734  0.1247
 9423SOL    HW235269   5.150   5.811   2.390  2.1082  1.4019 -0.9108
 9424SOL     OW35270   4.505   1.309   2.264 -0.0298  1.0115  0.3979
 9424SOL    HW135271   4.407   1.299   2.246  0.1950  0.1917 -0.4082
 9424SOL    HW235272   4.556   1.245   2.207  1.1082  2.8737 -0.7336
 9425SOL     OW35273   1.573   5.156   2.940  0.1083  0.1330  0.5643
 9425SOL    HW135274   1.644   5.143   3.009 -0.6600 -0.5329  1.2483
 9425SOL    HW235275   1.582   5.247   2.900  0.6102  0.5150  1.5124
 9426SOL     OW35276   3.900   1.432   5.309  0.4127  0.0519 -0.3443
 9426SOL    HW135277   3.879   1.373   5.387 -0.9238  1.6126  0.5126
 9426SOL    HW235278   3.987   1.479   5.325  0.1802  0.3088  0.1893
 9427SOL     OW35279   3.110   2.167   0.044 -0.2951 -0.2725  0.6925
 9427SOL    HW135280   3.145   2.096  -0.018 -0.6889 -0.9283  1.2110
 9427SOL    HW235281   3.178   2.186   0.114  0.0777  0.3406  0.1777
 9428SOL     OW35282   4.091   5.502   3.322  0.7357  0.3731  0.0249
 9428SOL    HW135283   4.044   5.562   3.258 -0.8703 -0.4665  0.3976
 9428SOL    HW235284   4.111   5.415   3.277  2.3188  0.8558 -0.2547
 9429SOL     OW35285   6.785   0.961   2.846 -0.9917 -0.9721  0.3758
 9429SOL    HW135286   6.881   0.935   2.837 -0.3539  0.6518  2.2022
 9429SOL    HW235287   6.765   1.036   2.783 -1.5145 -2.4150 -1.2062
 9430SOL     OW35288   5.040   7.232   1.161 -0.6199 -0.0858 -0.6077
 9430SOL    HW135289   5.127   7.281   1.156 -0.8986  0.5869  0.8411
 9430SOL    HW235290   5.052   7.140   1.124  0.5435  0.2134 -1.0096
 9431SOL     OW35291   3.123   7.348   0.868  0.0079  0.0789  0.0343
 9431SOL    HW135292   3.159   7.255   0.881 -0.0771 -0.1699 -1.3889
 9431SOL    HW235293   3.050   7.365   0.935  1.4213 -0.1141  1.6579
 9432SOL     OW35294   0.570   0.953   2.305  0.3599  0.1963  0.2287
 9432SOL    HW135295   0.667   0.978   2.314  0.3878  0.2509 -0.2003
 9432SOL    HW235296   0.550   0.934   2.209  0.0984 -0.4550  0.4113
 9433SOL     OW35297   0.027   4.830   6.211  0.5003  0.5374  0.3996
 9433SOL    HW135298   0.061   4.890   6.138  0.3604  0.3542  0.1819
 9433SOL    HW235299   0.017   4.883   6.296  1.0255  0.6603  0.3834
 9434SOL     OW35300   4.117   1.996   5.545 -0.1470 -0.1356  0.5210
 9434SOL    HW135301   4.133   1.899   5.566  1.4618 -0.0483 -0.2237
 9434SOL    HW235302   4.020   2.010   5.527 -0.3932 -1.6307  0.5953
 9435SOL     OW35303   3.126   4.335   2.556 -0.4225  0.1916  0.3549
 9435SOL    HW135304   3.029   4.322   2.535 -0.4994 -1.7940  1.8980
 9435SOL    HW235305   3.182   4.274   2.499 -0.1449  0.3440  0.4596
 9436SOL     OW35306   1.772   1.857   7.298  0.0612 -0.0881 -0.1167
 9436SOL    HW135307   1.805   1.807   7.378 -2.4528 -0.4376  0.7529
 9436SOL    HW235308   1.848   1.908   7.257  1.2041  0.9780  3.1317
 9437SOL     OW35309   5.701   1.720   6.741 -0.3642 -0.2509  0.0773
 9437SOL    HW135310   5.627   1.661   6.709  0.3401 -0.3897 -1.3391
 9437SOL    HW235311   5.781   1.709   6.681 -0.0842  1.8193  0.0133
 9438SOL     OW35312   5.743   2.558   4.227  0.0155 -0.4364 -0.1143
 9438SOL    HW135313   5.829   2.559   4.175  0.0178 -0.4304 -0.1107
 9438SOL    HW235314   5.666   2.559   4.164  0.0192 -0.7942 -0.1236
 9439SOL     OW35315   3.962   3.804   2.306 -0.1381 -0.0092 -0.5114
 9439SOL    HW135316   4.045   3.749   2.314 -0.7045 -0.9046 -0.6800
 9439SOL    HW235317   3.882   3.743   2.305 -0.7451  0.7924 -1.2357
 9440SOL     OW35318   1.614   3.938   0.204  0.1277 -0.3735 -0.7055
 9440SOL    HW135319   1.676   3.887   0.264 -0.8239 -1.3361 -0.5362
 9440SOL    HW235320   1.547   3.876   0.165 -1.1211  0.7785 -0.4153
 9441SOL     OW35321   4.620   2.715   1.797 -0.0028  0.7625  0.0353
 9441SOL    HW135322   4.594   2.808   1.825  0.6035  0.5801  1.2258
 9441SOL    HW235323   4.611   2.707   1.698 -2.6270  1.2953  0.1843
 9442SOL     OW35324   3.533   2.953   6.171  0.4405  0.0499  0.0729
 9442SOL    HW135325   3.628   2.967   6.196  0.3435  2.1880 -0.6370
 9442SOL    HW235326   3.517   2.992   6.080 -1.7176  2.1336  1.2968
 9443SOL     OW35327   6.511   3.013   4.010 -0.0836  0.0855 -0.1782
 9443SOL    HW135328   6.545   3.081   4.075  0.9791 -1.0587  0.4933
 9443SOL    HW235329   6.425   3.044   3.970  0.1390  1.5869  0.4847
 9444SOL     OW35330   5.633   2.842   6.945  0.5932 -0.4800 -0.4045
 9444SOL    HW135331   5.645   2.778   7.021 -1.2897  0.5487  0.8137
 9444SOL    HW235332   5.683   2.926   6.965  0.1944 -0.2543 -0.3541
 9445SOL     OW35333   6.973   7.345   2.660  0.5057 -0.1644  0.2604
 9445SOL    HW135334   6.892   7.287   2.657 -0.9271  1.8131 -1.0344
 9445SOL    HW235335   7.009   7.348   2.753 -0.1971 -1.9898  0.6103
 9446SOL     OW35336   0.964   2.875   0.667  0.3515  0.1052 -0.0209
 9446SOL    HW135337   0.868   2.878   0.697  0.4694 -1.0371  0.5145
 9446SOL    HW235338   0.974   2.924   0.581 -0.2612  2.2865  1.1133
 9447SOL     OW35339   0.601   1.181   2.876 -0.1169 -0.1279  0.6390
 9447SOL    HW135340   0.659   1.102   2.857 -1.1226 -0.8133  0.3731
 9447SOL    HW235341   0.603   1.243   2.798  0.9723  0.2983  1.0004
 9448SOL     OW35342   4.114   5.286   3.182  0.5285 -0.8969 -0.2540
 9448SOL    HW135343   4.119   5.191   3.211  1.8728 -1.2701 -1.6783
 9448SOL    HW235344   4.025   5.303   3.139 -1.2671 -0.4817  3.4244
 9449SOL     OW35345   5.314   4.146   7.091  0.2284  0.0890 -0.1748
 9449SOL    HW135346   5.353   4.111   7.006  1.9803  1.3787  0.0743
 9449SOL    HW235347   5.214   4.148   7.083  0.2460 -1.9306 -1.3429
 9450SOL     OW35348   1.691   0.591   6.305  0.2184  0.2151 -0.6115
 9450SOL    HW135349   1.723   0.520   6.367  0.9223  1.0828  0.0434
 9450SOL    HW235350   1.594   0.609   6.322 -0.3989 -1.7401 -1.9278
 9451SOL     OW35351   5.396   3.968   3.893 -0.3187  0.0074 -0.4172
 9451SOL    HW135352   5.392   3.884   3.946 -1.2871  0.4846  0.2948
 9451SOL    HW235353   5.379   3.948   3.797 -0.3535 -0.6377 -0.2786
 9452SOL     OW35354   4.742   6.689   2.904 -0.5309 -0.4202 -0.3787
 9452SOL    HW135355   4.651   6.706   2.864 -0.7354 -1.2949 -0.3035
 9452SOL    HW235356   4.800   6.646   2.835 -0.0991  0.3417 -0.4927
 9453SOL     OW35357   3.643   0.583   1.417  0.3515  0.6869 -0.0611
 9453SOL    HW135358   3.691   0.495   1.417  0.9636  0.9737  2.0164
 9453SOL    HW235359   3.636   0.618   1.324 -1.4171 -2.3533 -1.1468
 9454SOL     OW35360   3.828   6.991   4.623  0.2982 -0.0912  0.3896
 9454SOL    HW135361   3.821   6.906   4.570  1.8780  0.8287 -1.3654
 9454SOL    HW235362   3.832   7.068   4.560 -0.1562  1.2205  1.9524
 9455SOL     OW35363   5.255   5.526   2.533 -0.0766 -0.0374  0.1184
 9455SOL    HW135364   5.260   5.431   2.503 -0.1110 -0.2546  0.8063
 9455SOL    HW235365   5.240   5.530   2.632 -1.6003  0.6654 -0.1160
 9456SOL     OW35366   5.846   2.073   3.690  0.2256 -0.6450 -0.6721
 9456SOL    HW135367   5.854   2.043   3.785  2.4050 -1.4466 -1.0723
 9456SOL    HW235368   5.778   2.146   3.684 -0.6637 -1.2512  1.3272
 9457SOL     OW35369   2.516   3.231   0.464 -0.5378 -0.3920 -0.0480
 9457SOL    HW135370   2.579   3.168   0.508 -0.5256 -0.3197  0.0374
 9457SOL    HW235371   2.482   3.190   0.379 -1.3450 -0.9421  0.5393
 9458SOL     OW35372   2.224   4.054   2.924  0.0340  0.4994  0.1918
 9458SOL    HW135373   2.129   4.022   2.933  0.4258 -1.1794 -1.2869
 9458SOL    HW235374   2.282   4.007   2.990  0.0836  0.4121  0.0871
 9459SOL     OW35375   3.779   6.169   5.984 -0.1466  0.0205 -0.2381
 9459SOL    HW135376   3.741   6.121   5.904 -1.5804  2.2612 -0.9381
 9459SOL    HW235377   3.877   6.149   5.991  0.5357  1.6196 -3.9739
 9460SOL     OW35378   4.596   0.701   1.145  0.0479 -0.5618 -0.1531
 9460SOL    HW135379   4.550   0.778   1.101  0.5431 -0.5895 -0.7279
 9460SOL    HW235380   4.584   0.619   1.089 -1.8412 -1.2854  1.2463
 9461SOL     OW35381   3.414   4.447   2.417  0.3942 -0.3855 -0.3529
 9461SOL    HW135382   3.430   4.509   2.494 -0.3627  2.8140 -2.6781
 9461SOL    HW235383   3.498   4.439   2.364  0.1135 -0.2744 -0.8118
 9462SOL     OW35384   3.369   2.669   4.567  0.3360 -0.5305  0.3931
 9462SOL    HW135385   3.451   2.615   4.550  1.5803  1.3692  0.1825
 9462SOL    HW235386   3.371   2.753   4.512 -1.9859 -0.6624  0.0184
 9463SOL     OW35387   2.176   3.292   7.264  0.2995 -0.3412  0.1794
 9463SOL    HW135388   2.274   3.309   7.259  0.6773 -2.1843  0.8780
 9463SOL    HW235389   2.157   3.228   7.339 -1.2908 -1.0624 -0.8060
 9464SOL     OW35390   2.895   5.836   3.226  0.0524 -0.3885  0.2648
 9464SOL    HW135391   2.808   5.835   3.176 -1.1540  0.3897  2.2436
 9464SOL    HW235392   2.943   5.921   3.207  0.2585 -0.7009 -0.6331
 9465SOL     OW35393   5.420   0.925   1.850 -0.2123  0.1909 -0.0467
 9465SOL    HW135394   5.399   0.886   1.940  0.1052  1.9379  0.7985
 9465SOL    HW235395   5.360   1.002   1.832  1.3807  1.4127 -0.2549
 9466SOL     OW35396   4.913   5.573   3.641 -0.3014  0.3899  0.1706
 9466SOL    HW135397   4.944   5.628   3.718 -0.5682 -0.3271  0.8023
 9466SOL    HW235398   4.878   5.485   3.675  1.3753 -0.7314 -0.9233
 9467SOL     OW35399   0.384   0.163   1.256  0.3396 -0.5786 -0.0447
 9467SOL    HW135400   0.445   0.110   1.197 -1.1955 -1.0062 -1.2802
 9467SOL    HW235401   0.406   0.260   1.248  1.2760 -0.7867  0.0020
 9468SOL     OW35402   0.510   6.856   5.445  0.0467 -0.3077 -0.3697
 9468SOL    HW135403   0.607   6.856   5.421  0.1327  1.6801 -0.1383
 9468SOL    HW235404   0.472   6.947   5.431 -0.7982 -0.0002  3.3769
 9469SOL     OW35405   5.868   0.462   3.133 -0.2895  0.2100  0.2462
 9469SOL    HW135406   5.797   0.392   3.144  0.0465  0.1988  2.5266
 9469SOL    HW235407   5.957   0.420   3.147  0.0387  0.6866 -0.4213
 9470SOL     OW35408   1.463   4.977   7.176 -0.6553 -0.2567  0.1084
 9470SOL    HW135409   1.405   5.044   7.222  0.5803  1.4496 -0.7798
 9470SOL    HW235410   1.476   5.003   7.081  3.1780  0.5329  0.7667
 9471SOL     OW35411   1.508   2.960   0.662  0.2271 -0.0214 -0.0246
 9471SOL    HW135412   1.475   3.050   0.692 -0.6597 -1.3268  3.1606
 9471SOL    HW235413   1.608   2.961   0.660  0.2590  0.6660  1.2422
 9472SOL     OW35414   1.900   4.722   1.781 -0.4097  0.3548 -0.5634
 9472SOL    HW135415   1.889   4.787   1.857  1.4615 -2.3946  2.1571
 9472SOL    HW235416   1.994   4.686   1.781 -1.7651 -3.3904 -1.1499
 9473SOL     OW35417   6.593   6.611   0.299  0.0001 -0.4610 -0.0569
 9473SOL    HW135418   6.544   6.554   0.366 -2.6655 -0.8467 -2.2408
 9473SOL    HW235419   6.590   6.567   0.210  1.9623  0.9114 -0.8349
 9474SOL     OW35420   2.962   5.481   2.753 -0.3181  0.1513  0.1071
 9474SOL    HW135421   2.882   5.482   2.693  0.6281  1.7657 -1.1511
 9474SOL    HW235422   2.950   5.548   2.826 -0.5419 -0.2953  0.4789
 9475SOL     OW35423   0.166   0.308   2.968 -0.7305 -0.0189  0.0178
 9475SOL    HW135424   0.181   0.234   3.034 -0.7631  0.0534  0.1052
 9475SOL    HW235425   0.194   0.395   3.008  1.5748 -0.2899 -0.9365
 9476SOL     OW35426   3.352   5.230   1.231  0.2056 -0.4602 -0.8650
 9476SOL    HW135427   3.423   5.174   1.190 -1.3637 -1.7953 -1.8209
 9476SOL    HW235428   3.365   5.233   1.330  1.7261 -0.4703 -1.0541
 9477SOL     OW35429   0.834   0.926   4.687 -0.2835  0.1370 -0.2832
 9477SOL    HW135430   0.893   0.854   4.648  0.2153  0.1561  0.4252
 9477SOL    HW235431   0.871   1.016   4.662 -0.0036  0.1490  0.1620
 9478SOL     OW35432   1.814   5.529   3.505 -0.1942  0.2328 -0.5809
 9478SOL    HW135433   1.797   5.561   3.412  0.1488  1.4818 -0.2243
 9478SOL    HW235434   1.761   5.585   3.570 -1.1779 -1.2432 -0.0911
 9479SOL     OW35435   0.257   6.503   2.775  0.9108 -0.1030 -0.2089
 9479SOL    HW135436   0.208   6.441   2.837 -1.4399  0.7294 -1.1797
 9479SOL    HW235437   0.242   6.598   2.805  1.6567  0.1773 -0.7184
 9480SOL     OW35438   5.605   7.134   0.338  0.2605  0.2773 -0.0339
 9480SOL    HW135439   5.566   7.169   0.253 -1.3144 -1.1241  0.0831
 9480SOL    HW235440   5.636   7.040   0.324  2.5437  0.9554  0.2160
 9481SOL     OW35441   5.265   6.794   4.758  0.1837  0.0715  0.3037
 9481SOL    HW135442   5.315   6.806   4.843  0.6405 -0.7509  0.1655
 9481SOL    HW235443   5.240   6.697   4.748  0.6739  0.0569 -0.7885
 9482SOL     OW35444   0.025   1.439   0.307  1.0315 -0.0180 -0.3491
 9482SOL    HW135445  -0.019   1.373   0.367 -0.7268 -0.0507 -1.6297
 9482SOL    HW235446   0.125   1.432   0.317  0.9032 -3.0758 -0.6883
 9483SOL     OW35447   1.987   0.464   0.303  0.4878  0.2710  0.3078
 9483SOL    HW135448   1.912   0.529   0.294  0.1685  0.1331  1.8117
 9483SOL    HW235449   1.961   0.392   0.367  2.6205  1.3433  2.4956
 9484SOL     OW35450   2.399   3.114   0.244 -0.1839  0.6589  0.6434
 9484SOL    HW135451   2.388   3.024   0.286  1.1166 -0.2453 -0.8742
 9484SOL    HW235452   2.318   3.137   0.191 -0.6559  0.5310  1.3089
 9485SOL     OW35453   5.595   6.004   5.195  0.2250 -0.0536 -0.3119
 9485SOL    HW135454   5.682   5.990   5.147  0.9911  1.0750  0.7062
 9485SOL    HW235455   5.586   6.101   5.220 -0.4047 -0.5293  1.3317
 9486SOL     OW35456   1.868   2.285   5.650  0.0535  0.0292 -0.0192
 9486SOL    HW135457   1.922   2.367   5.629  2.3898 -1.4394 -0.0003
 9486SOL    HW235458   1.783   2.287   5.598  0.5016  2.0066 -0.7409
 9487SOL     OW35459   1.932   4.880   3.341 -0.2523  0.2388  0.4329
 9487SOL    HW135460   1.930   4.798   3.397  0.4283  0.4874  0.8248
 9487SOL    HW235461   1.942   4.960   3.400 -0.9466  0.6089  0.0575
 9488SOL     OW35462   5.087   5.379   1.224  0.0996  0.4775  0.5036
 9488SOL    HW135463   5.066   5.434   1.305 -0.7577  1.5115 -0.4117
 9488SOL    HW235464   5.046   5.421   1.143 -0.4672 -1.4457 -0.2337
 9489SOL     OW35465   7.315   4.035   6.758 -0.2090 -0.3676 -0.0284
 9489SOL    HW135466   7.336   4.084   6.842  3.9813  0.6200 -1.5009
 9489SOL    HW235467   7.354   4.085   6.680 -2.5359 -2.1057 -2.4125
 9490SOL     OW35468   4.958   4.651   5.591  0.1931 -0.4085  0.1878
 9490SOL    HW135469   4.986   4.598   5.671  0.4496  0.3591  0.6160
 9490SOL    HW235470   5.030   4.648   5.522 -1.0732 -3.1484 -1.0614
 9491SOL     OW35471   6.132   4.269   2.373 -0.1171  0.2439 -0.0963
 9491SOL    HW135472   6.114   4.307   2.282  1.2921  2.1672  0.4040
 9491SOL    HW235473   6.157   4.173   2.364 -1.5550 -0.0185 -1.5970
 9492SOL     OW35474   0.543   6.414   6.964  0.2750  0.0255  0.0033
 9492SOL    HW135475   0.550   6.314   6.960 -0.2534 -0.1019  1.7009
 9492SOL    HW235476   0.631   6.455   6.941  0.6348 -0.8601 -0.1983
 9493SOL     OW35477   5.557   4.398   4.635 -0.5592  0.1095  0.3644
 9493SOL    HW135478   5.517   4.458   4.566  0.8832  0.5269 -0.1377
 9493SOL    HW235479   5.548   4.439   4.725 -3.1055 -0.7668  0.5447
 9494SOL     OW35480   5.158   5.187   2.493 -0.0706  0.2074 -0.2927
 9494SOL    HW135481   5.177   5.096   2.458  1.1495  0.1549  0.4965
 9494SOL    HW235482   5.138   5.183   2.591 -1.0463  0.6612 -0.4613
 9495SOL     OW35483   7.291   0.169   1.609  0.1454 -0.3087 -1.0166
 9495SOL    HW135484   7.356   0.230   1.564 -1.3490  0.7556 -1.7913
 9495SOL    HW235485   7.235   0.123   1.541  0.0317 -1.1569 -0.3596
 9496SOL     OW35486   6.167   1.469   3.416  0.4621 -0.4620 -0.1457
 9496SOL    HW135487   6.075   1.501   3.391  0.4276 -0.4272  0.0232
 9496SOL    HW235488   6.204   1.528   3.488  0.3096 -0.9274  0.3193
 9497SOL     OW35489   5.656   4.524   1.598 -0.1453 -0.1847  0.7339
 9497SOL    HW135490   5.620   4.433   1.581  2.6117 -1.0247 -0.8262
 9497SOL    HW235491   5.695   4.528   1.690 -1.1928 -0.2572  1.1832
 9498SOL     OW35492   7.049   4.475   2.805  0.2397  0.8983  0.9381
 9498SOL    HW135493   6.971   4.537   2.814  1.3822  2.4970  0.1987
 9498SOL    HW235494   7.064   4.455   2.708  0.9813  0.9167  1.0474
 9499SOL     OW35495   6.414   6.897   3.622 -0.3093 -0.2471 -0.2339
 9499SOL    HW135496   6.405   6.799   3.604 -0.0710 -0.4293  0.6307
 9499SOL    HW235497   6.403   6.948   3.537  0.6131 -1.0905 -0.8650
 9500SOL     OW35498   1.861   6.288   6.621 -0.3054 -0.1065  0.5633
 9500SOL    HW135499   1.958   6.271   6.637  0.2476  0.8665 -1.5906
 9500SOL    HW235500   1.825   6.350   6.690  1.3532  1.8937 -0.3125
 9501SOL     OW35501   0.139   0.032   2.532 -0.5053  0.1522 -0.0805
 9501SOL    HW135502   0.140   0.120   2.580 -0.0008 -0.5472  1.2117
 9501SOL    HW235503   0.114  -0.041   2.595 -2.0391 -0.5064 -1.4048
 9502SOL     OW35504   7.043   0.068   4.686  0.4262 -0.3270  0.2762
 9502SOL    HW135505   7.142   0.074   4.702  0.1588 -1.4588  2.5440
 9502SOL    HW235506   6.995   0.065   4.773 -1.6142 -0.0347 -0.8072
 9503SOL     OW35507   3.010   2.586   2.613 -0.4492 -0.1529  0.0106
 9503SOL    HW135508   2.910   2.582   2.615 -0.4713  0.6495  0.6393
 9503SOL    HW235509   3.047   2.532   2.688 -0.3840 -1.2616 -0.8135
 9504SOL     OW35510   3.388   1.087   1.162  0.2494  0.2127  0.1248
 9504SOL    HW135511   3.476   1.096   1.114  0.4562  0.2224  0.5000
 9504SOL    HW235512   3.382   1.158   1.232 -1.0299  1.6481 -1.3868
 9505SOL     OW35513   3.221   5.817   4.447 -0.0366 -0.0846  0.4971
 9505SOL    HW135514   3.297   5.779   4.395  0.3160 -0.0600  0.9976
 9505SOL    HW235515   3.155   5.745   4.467 -1.7526  0.4944 -2.7200
 9506SOL     OW35516   6.579   3.228   4.902  0.7012  1.1853  0.2488
 9506SOL    HW135517   6.599   3.313   4.852  1.9319 -0.5244 -2.2262
 9506SOL    HW235518   6.644   3.219   4.978  0.9228  2.1708  0.1949
 9507SOL     OW35519   5.012   4.109   2.618  0.5762 -0.7545 -0.0963
 9507SOL    HW135520   4.940   4.040   2.619 -1.5850  1.4335 -0.0531
 9507SOL    HW235521   5.019   4.147   2.526  1.1054 -0.3833  0.0992
 9508SOL     OW35522   2.121   6.831   3.865  0.5556  0.0780 -0.3431
 9508SOL    HW135523   2.042   6.797   3.916  1.4095 -0.8652  0.3803
 9508SOL    HW235524   2.156   6.914   3.909 -0.5151  0.9684 -1.1405
 9509SOL     OW35525   1.896   1.433   1.281 -0.4164  0.3699  0.0113
 9509SOL    HW135526   1.810   1.402   1.242 -0.2534 -0.3579  0.2213
 9509SOL    HW235527   1.878   1.481   1.367 -0.4647 -1.6868  1.1934
 9510SOL     OW35528   4.095   5.055   0.516 -0.0547  0.3186 -0.4121
 9510SOL    HW135529   3.996   5.040   0.512  0.0280  0.1054 -2.5258
 9510SOL    HW235530   4.142   4.968   0.528 -0.1043  0.3565  0.0484
 9511SOL     OW35531   5.734   3.350   1.308 -0.1212 -0.5065 -0.2340
 9511SOL    HW135532   5.662   3.307   1.362  0.0436  0.6287  0.9137
 9511SOL    HW235533   5.694   3.392   1.226 -0.6001 -0.7882 -0.1470
 9512SOL     OW35534   4.086   3.103   5.868  0.0736 -0.1800 -0.2272
 9512SOL    HW135535   4.052   3.174   5.929  0.7675  0.6015 -0.7400
 9512SOL    HW235536   4.026   3.096   5.788 -0.5697 -0.8832  0.3022
 9513SOL     OW35537   0.525   2.724   0.837 -0.0221  0.3193  0.1145
 9513SOL    HW135538   0.537   2.642   0.892  0.0637  0.0032 -0.3754
 9513SOL    HW235539   0.490   2.699   0.747  1.1970  0.7069 -0.4698
 9514SOL     OW35540   5.302   5.612   5.804 -0.3026 -0.2233 -0.0684
 9514SOL    HW135541   5.347   5.532   5.842 -0.2902  0.7912  2.1307
 9514SOL    HW235542   5.323   5.693   5.860 -1.7247  0.9855 -1.2151
 9515SOL     OW35543   5.839   0.892   6.014  0.4445 -0.3883 -0.1046
 9515SOL    HW135544   5.926   0.940   6.004  0.5420 -0.3401  0.8857
 9515SOL    HW235545   5.834   0.851   6.105 -0.1930 -1.1479 -0.4710
 9516SOL     OW35546   1.952   3.025   0.222  0.1694  0.2073 -0.1161
 9516SOL    HW135547   1.872   3.082   0.203  0.4727  1.1218  1.2330
 9516SOL    HW235548   1.924   2.942   0.270 -0.1671 -0.3060 -1.2042
 9517SOL     OW35549   4.845   2.736   3.639  0.0950 -0.6190 -0.0613
 9517SOL    HW135550   4.859   2.789   3.723  0.2779  0.6842 -0.9104
 9517SOL    HW235551   4.928   2.684   3.618  1.3685  1.9198 -1.4459
 9518SOL     OW35552   5.597   3.474   4.678 -0.4174 -0.0938  0.0440
 9518SOL    HW135553   5.595   3.470   4.578 -0.0240  1.9270 -0.0858
 9518SOL    HW235554   5.652   3.399   4.714 -0.3585 -0.6921 -1.2795
 9519SOL     OW35555   4.508   3.928   1.943  0.0904 -0.2771  0.0010
 9519SOL    HW135556   4.581   3.952   2.008 -0.7321  1.0404  0.4642
 9519SOL    HW235557   4.420   3.927   1.991 -0.5661  1.0579 -1.1385
 9520SOL     OW35558   5.049   5.876   0.825  0.0202  0.2615 -0.3468
 9520SOL    HW135559   5.106   5.809   0.778 -0.5974  0.6285 -1.6438
 9520SOL    HW235560   5.007   5.834   0.905 -0.6944 -1.0379 -1.3918
 9521SOL     OW35561   0.181   3.795   2.394 -0.0191 -0.7232 -0.1249
 9521SOL    HW135562   0.251   3.783   2.324  1.7558 -2.6256  1.8956
 9521SOL    HW235563   0.124   3.713   2.398 -0.5531 -0.3403  0.2033
 9522SOL     OW35564   6.605   6.044   4.321 -0.4299 -0.2536 -0.1864
 9522SOL    HW135565   6.582   6.116   4.255  0.0238 -0.0326 -0.1085
 9522SOL    HW235566   6.703   6.049   4.342 -0.5422 -0.4249  0.3795
 9523SOL     OW35567   2.305   5.771   4.664 -0.1161  0.2167  0.7014
 9523SOL    HW135568   2.306   5.870   4.678 -0.9071 -0.0010  2.3955
 9523SOL    HW235569   2.386   5.731   4.706 -0.3697  0.0239  1.0096
 9524SOL     OW35570   1.590   6.783   1.318 -0.0619  0.2564 -0.2737
 9524SOL    HW135571   1.533   6.724   1.376 -1.2907  0.1987 -1.5213
 9524SOL    HW235572   1.652   6.726   1.264 -0.1417  0.1996 -0.3065
 9525SOL     OW35573   2.353   0.529   5.902  0.2577  0.2946  0.9572
 9525SOL    HW135574   2.368   0.628   5.902  0.8637  0.2136 -0.1974
 9525SOL    HW235575   2.269   0.507   5.950 -0.5600  1.4809  0.0789
 9526SOL     OW35576   4.901   2.046   0.055  0.0966 -0.1606 -0.6497
 9526SOL    HW135577   4.995   2.017   0.036 -0.0250  0.2604 -1.9783
 9526SOL    HW235578   4.899   2.143   0.077  0.0948 -0.4049  0.4663
 9527SOL     OW35579   5.913   1.007   1.955  0.0226  0.1683  0.7497
 9527SOL    HW135580   5.822   1.018   1.914 -0.7948  2.2562  3.0107
 9527SOL    HW235581   5.977   1.071   1.912 -0.0769  0.1814  0.6193
 9528SOL     OW35582   1.909   7.089   6.247  0.0410  0.5166  0.4406
 9528SOL    HW135583   1.822   7.059   6.286  0.2941 -1.1068 -0.2226
 9528SOL    HW235584   1.968   7.124   6.320  0.1465 -1.6120  1.3983
 9529SOL     OW35585   2.568   5.704   4.768 -0.1827  0.2480  0.3758
 9529SOL    HW135586   2.636   5.702   4.841 -0.1260 -0.0365  0.3150
 9529SOL    HW235587   2.607   5.663   4.686  0.4739  2.3869 -0.4262
 9530SOL     OW35588   4.691   1.149   6.216  0.0872  0.1986  0.3969
 9530SOL    HW135589   4.605   1.099   6.219  0.5539 -0.5805  0.7548
 9530SOL    HW235590   4.723   1.154   6.121 -0.1577  0.1659  0.3115
 9531SOL     OW35591   4.027   4.764   5.845 -0.0161  0.3305 -0.2726
 9531SOL    HW135592   3.997   4.741   5.752  0.3726  0.2042 -0.3680
 9531SOL    HW235593   4.126   4.777   5.845  0.0772 -0.4023  0.2844
 9532SOL     OW35594   7.072   2.349   4.141 -0.1925 -0.4565  0.2037
 9532SOL    HW135595   7.153   2.327   4.196  0.6028  2.7517  0.4376
 9532SOL    HW235596   6.990   2.332   4.195  0.4409 -0.7027  1.1072
 9533SOL     OW35597   6.239   0.428   0.552  0.2900  0.0258  0.1709
 9533SOL    HW135598   6.199   0.424   0.643 -0.2764 -0.3115 -0.0930
 9533SOL    HW235599   6.167   0.426   0.483  0.6332  1.5682 -0.2734
 9534SOL     OW35600   5.636   7.090   1.409  0.2981 -0.2358 -0.0330
 9534SOL    HW135601   5.704   7.097   1.482  0.5936  0.7427 -0.4086
 9534SOL    HW235602   5.681   7.097   1.320 -0.0455 -1.5669 -0.3259
 9535SOL     OW35603   2.134   2.841   3.352  0.3224 -0.1708 -0.1843
 9535SOL    HW135604   2.099   2.785   3.427  2.5344 -0.6192  0.5256
 9535SOL    HW235605   2.160   2.931   3.386 -2.0448  0.8970 -1.1004
 9536SOL     OW35606   3.172   0.321   0.494  0.0405  0.2993  0.0001
 9536SOL    HW135607   3.204   0.230   0.519  0.3789 -0.4252 -2.8080
 9536SOL    HW235608   3.194   0.386   0.567  2.1179 -1.3933  0.9417
 9537SOL     OW35609   6.788   0.798   0.809 -0.0479 -0.1547  0.1498
 9537SOL    HW135610   6.756   0.841   0.725 -1.4183 -1.1492  0.1470
 9537SOL    HW235611   6.729   0.824   0.885 -0.0053 -0.8624  0.4261
 9538SOL     OW35612   3.489   5.672   4.253 -0.1952 -0.2926 -0.0377
 9538SOL    HW135613   3.511   5.749   4.194  0.3819 -2.1726 -2.3399
 9538SOL    HW235614   3.476   5.589   4.198 -0.7151 -1.8811  2.3653
 9539SOL     OW35615   0.300   0.529   1.771 -0.0000 -0.1701 -0.6975
 9539SOL    HW135616   0.216   0.580   1.757 -0.0523  0.2464  1.0074
 9539SOL    HW235617   0.296   0.480   1.858  1.8297  0.5013 -0.2040
 9540SOL     OW35618   2.130   7.333   1.827 -0.4187  0.3686 -0.3557
 9540SOL    HW135619   2.109   7.245   1.870 -0.7439  0.1201 -1.0192
 9540SOL    HW235620   2.151   7.318   1.731 -0.9159  1.0675 -0.5748
 9541SOL     OW35621   7.253   7.336   0.413  0.4445 -0.1772  0.1929
 9541SOL    HW135622   7.183   7.269   0.387  0.3990  0.7336 -2.1906
 9541SOL    HW235623   7.227   7.381   0.498 -0.7812 -1.3856  0.4765
 9542SOL     OW35624   1.104   4.288   2.936  0.1713 -0.2333 -0.2522
 9542SOL    HW135625   1.106   4.320   2.841 -0.8624 -1.1252 -0.5942
 9542SOL    HW235626   1.195   4.297   2.976  0.7282 -0.2498 -1.4691
 9543SOL     OW35627   4.649   4.994   2.534 -0.2122  0.7337 -0.0440
 9543SOL    HW135628   4.603   5.068   2.584 -0.8541  0.0814  0.3351
 9543SOL    HW235629   4.665   5.023   2.440 -0.7047  1.2527  0.0300
 9544SOL     OW35630   4.697   2.293   4.523  0.2556 -0.3486 -0.5683
 9544SOL    HW135631   4.771   2.314   4.460 -0.7172  2.3375 -0.8752
 9544SOL    HW235632   4.733   2.277   4.615  1.2439  0.4007 -0.8294
 9545SOL     OW35633   6.319   2.814   2.777  0.1177 -0.2312 -0.1003
 9545SOL    HW135634   6.250   2.812   2.849 -0.3127  0.7927 -0.4666
 9545SOL    HW235635   6.319   2.727   2.728 -1.1277 -0.1501 -0.2744
 9546SOL     OW35636   1.437   1.637   2.812 -0.2027 -0.1952 -0.4256
 9546SOL    HW135637   1.528   1.671   2.787 -0.9191  1.3783 -0.9446
 9546SOL    HW235638   1.446   1.544   2.848  1.4897 -0.4900 -1.4917
 9547SOL     OW35639   5.974   2.839   4.923 -0.2417 -0.2809  0.3126
 9547SOL    HW135640   5.926   2.826   4.836  0.7125 -0.1675 -0.2293
 9547SOL    HW235641   5.913   2.814   4.998  0.2347 -4.3533 -0.5139
 9548SOL     OW35642   5.655   6.442   4.995  0.1877 -0.2292 -0.1039
 9548SOL    HW135643   5.626   6.524   4.946  2.1396  0.5559  0.0201
 9548SOL    HW235644   5.644   6.362   4.936 -1.1427  0.1913 -0.4403
 9549SOL     OW35645   1.240   3.216   2.007  0.5397  0.3625 -0.0521
 9549SOL    HW135646   1.266   3.244   2.099 -0.8225 -1.1750  0.8154
 9549SOL    HW235647   1.302   3.143   1.976  1.5799  1.5179 -0.7386
 9550SOL     OW35648   2.946   3.472   6.128  0.7788 -0.3615  0.3916
 9550SOL    HW135649   2.877   3.406   6.099  1.1830 -0.5785 -0.0964
 9550SOL    HW235650   2.904   3.543   6.184  0.1926 -0.5752  0.2215
 9551SOL     OW35651   1.584   0.231   6.165  0.2809  0.1607  0.5398
 9551SOL    HW135652   1.493   0.250   6.129  0.8375  0.9278 -0.4669
 9551SOL    HW235653   1.608   0.301   6.233 -0.4374 -0.8272  1.8284
 9552SOL     OW35654   2.264   5.545   3.517  0.2654 -0.3353 -0.4992
 9552SOL    HW135655   2.233   5.599   3.439  0.4301  2.3780  1.2626
 9552SOL    HW235656   2.363   5.539   3.516  0.2128 -1.2580 -1.0865
 9553SOL     OW35657   2.782   5.951   0.609 -0.1056 -0.3298 -0.2945
 9553SOL    HW135658   2.721   6.031   0.615 -2.7600 -2.3089 -0.0778
 9553SOL    HW235659   2.769   5.906   0.521  0.5783 -1.1543  0.0200
 9554SOL     OW35660   1.354   0.495   1.820  0.4548 -0.8038 -0.1941
 9554SOL    HW135661   1.279   0.438   1.854  2.5370 -3.1426  0.5998
 9554SOL    HW235662   1.380   0.465   1.728  0.7303 -0.2735 -0.2943
 9555SOL     OW35663   6.028   3.608   0.589 -0.1069  0.5122  0.2979
 9555SOL    HW135664   5.982   3.546   0.526  2.6691  0.5216 -1.8516
 9555SOL    HW235665   6.047   3.695   0.543  1.1109  0.8687  1.4419
 9556SOL     OW35666   6.338   3.271   5.360 -0.1860 -0.1468 -0.0039
 9556SOL    HW135667   6.340   3.370   5.372  2.8961  0.0963 -1.8366
 9556SOL    HW235668   6.301   3.249   5.269  2.3911 -0.4457 -1.0208
 9557SOL     OW35669   0.346   5.604   0.747  0.0174  0.0204  0.2339
 9557SOL    HW135670   0.386   5.668   0.681 -1.0122  0.6212  0.1938
 9557SOL    HW235671   0.247   5.616   0.750  0.1815  1.1330  3.0505
 9558SOL     OW35672   0.860   4.160   3.086 -0.3954  0.2105  0.0783
 9558SOL    HW135673   0.904   4.204   3.007 -0.8341  0.8258  0.1696
 9558SOL    HW235674   0.930   4.132   3.152 -0.1568  1.6835  0.4845
 9559SOL     OW35675   2.130   3.606   5.567  1.0878 -0.4104  0.2069
 9559SOL    HW135676   2.175   3.694   5.582  1.7831 -1.0261  1.7919
 9559SOL    HW235677   2.035   3.622   5.539  0.9960  0.8430  1.1817
 9560SOL     OW35678   6.533   3.305   2.175  0.0847 -0.2912  0.3413
 9560SOL    HW135679   6.522   3.401   2.151 -0.1027  0.1993  2.3150
 9560SOL    HW235680   6.598   3.297   2.252 -0.5763 -1.6520  0.7752
 9561SOL     OW35681   4.594   2.994   4.226 -0.1687  0.1081 -0.0312
 9561SOL    HW135682   4.553   2.932   4.159 -0.6873 -0.2491  0.6001
 9561SOL    HW235683   4.547   2.983   4.314 -0.7138  1.8852 -0.0852
 9562SOL     OW35684   2.396   6.182   1.496  0.2778  0.1603  0.3044
 9562SOL    HW135685   2.396   6.281   1.512  0.7707  0.0903  0.7446
 9562SOL    HW235686   2.484   6.154   1.460 -0.2842  0.0649 -0.9995
 9563SOL     OW35687   6.718   7.313   0.940 -0.0064 -0.0851  0.6730
 9563SOL    HW135688   6.716   7.222   0.898 -1.1417 -0.1624  0.8694
 9563SOL    HW235689   6.740   7.304   1.037  0.8732 -0.0590  0.4795
 9564SOL     OW35690   0.485   4.345   0.551  0.0569  0.2938 -0.0711
 9564SOL    HW135691   0.439   4.404   0.618  0.0364  2.1894 -1.7489
 9564SOL    HW235692   0.577   4.378   0.534  0.2496 -0.4950 -0.5892
 9565SOL     OW35693   6.568   5.754   4.390  0.0744 -0.1359 -0.1686
 9565SOL    HW135694   6.474   5.756   4.425  0.2058  0.6055  0.1658
 9565SOL    HW235695   6.607   5.846   4.397  0.9458 -0.5180  0.0393
 9566SOL     OW35696   1.520   0.709   0.517 -0.3318 -0.2544 -0.5037
 9566SOL    HW135697   1.578   0.704   0.597 -0.5506 -0.8657 -0.3758
 9566SOL    HW235698   1.567   0.758   0.444  0.5937 -1.2642 -0.6059
 9567SOL     OW35699   6.410   0.808   2.706  0.5204  0.4185  0.7159
 9567SOL    HW135700   6.380   0.900   2.732 -2.8520 -0.6183  0.7381
 9567SOL    HW235701   6.445   0.809   2.613 -1.2147  1.4295  0.0478
 9568SOL     OW35702   1.564   0.951   1.324 -0.7486  0.8616  0.0122
 9568SOL    HW135703   1.607   1.022   1.379  1.4712  0.0353 -0.6054
 9568SOL    HW235704   1.496   0.903   1.380  1.4540  0.0364  2.0753
 9569SOL     OW35705   3.685   3.522   0.158  0.0318  0.4657 -0.0198
 9569SOL    HW135706   3.663   3.576   0.076  1.1160 -0.3990 -0.8869
 9569SOL    HW235707   3.621   3.445   0.165 -0.1015  0.5765 -0.0050
 9570SOL     OW35708   3.273   7.324   1.668  0.3073 -0.3421 -0.0450
 9570SOL    HW135709   3.275   7.401   1.731  1.7367 -0.0239 -0.4572
 9570SOL    HW235710   3.301   7.355   1.577 -0.0357 -1.1496 -0.4333
 9571SOL     OW35711   4.823   6.930   3.503  0.1023 -0.4571  0.0399
 9571SOL    HW135712   4.738   6.926   3.554  0.2969 -2.3043  0.2744
 9571SOL    HW235713   4.820   7.005   3.437 -1.5229 -0.2536  0.3460
 9572SOL     OW35714   1.377   2.523   4.773 -0.1761  0.3379 -0.5826
 9572SOL    HW135715   1.335   2.594   4.716  1.6239 -0.2718 -2.7259
 9572SOL    HW235716   1.469   2.553   4.799  0.3953 -0.9699 -1.0666
 9573SOL     OW35717   1.907   2.770   2.875 -0.4983  0.2480  0.2801
 9573SOL    HW135718   1.896   2.766   2.775 -0.7483 -1.6901  0.3633
 9573SOL    HW235719   1.843   2.707   2.918  2.1282 -1.6718  1.4680
 9574SOL     OW35720   5.415   0.635   7.210 -0.3431  0.3328 -0.1532
 9574SOL    HW135721   5.469   0.667   7.288  0.4923  1.3871 -1.1361
 9574SOL    HW235722   5.317   0.645   7.230 -0.1393 -0.0278  1.0079
 9575SOL     OW35723   3.801   2.485   0.937  0.1549  0.2018  0.0726
 9575SOL    HW135724   3.848   2.415   0.883  0.3584 -0.5653  1.2406
 9575SOL    HW235725   3.712   2.504   0.896  0.8157  0.5226 -1.2460
 9576SOL     OW35726   7.333   6.866   0.746 -0.1066  0.2142 -0.4328
 9576SOL    HW135727   7.420   6.857   0.795  0.0665 -0.4771 -0.8697
 9576SOL    HW235728   7.346   6.843   0.650 -0.7283  0.3178 -0.5427
 9577SOL     OW35729   5.057   5.344   5.787  0.6168  0.0095 -0.1591
 9577SOL    HW135730   5.044   5.298   5.875 -2.0713  0.4960 -0.2722
 9577SOL    HW235731   5.119   5.421   5.800  1.0708 -0.5426  1.0901
 9578SOL     OW35732   1.563   3.419   6.144 -0.4127  0.0881 -0.0864
 9578SOL    HW135733   1.604   3.501   6.103  2.6549 -1.9426 -1.2707
 9578SOL    HW235734   1.634   3.368   6.194 -2.5307 -1.2541  1.6411
 9579SOL     OW35735   1.187   5.740   4.843  0.0611  0.1162 -0.1117
 9579SOL    HW135736   1.241   5.658   4.864 -0.5207 -0.5949 -1.3361
 9579SOL    HW235737   1.091   5.715   4.833  0.1615  0.5846 -2.4895
 9580SOL     OW35738   2.875   5.112   2.951 -0.1759 -0.1793 -0.1390
 9580SOL    HW135739   2.876   5.106   3.051  1.3354  2.1146  0.0167
 9580SOL    HW235740   2.781   5.116   2.919 -0.6797 -1.2645  1.1711
 9581SOL     OW35741   0.390   6.872   1.081  0.7656  0.2725 -0.3135
 9581SOL    HW135742   0.428   6.964   1.086 -0.6523  0.9835 -2.0026
 9581SOL    HW235743   0.426   6.817   1.155  2.5263  1.8592  0.0404
 9582SOL     OW35744   2.068   1.521   6.391  0.2295  0.0464  0.3084
 9582SOL    HW135745   2.090   1.547   6.485  0.6919  1.1387 -0.0867
 9582SOL    HW235746   1.978   1.477   6.388  0.9664 -1.5543  1.4939
 9583SOL     OW35747   1.121   4.301   3.884 -0.6724  0.0682  0.1122
 9583SOL    HW135748   1.025   4.271   3.886 -0.5844 -0.2650 -0.6063
 9583SOL    HW235749   1.125   4.398   3.910 -1.0966 -0.1640  1.0989
 9584SOL     OW35750   1.546   3.141   4.727 -0.1297  0.2797  0.1360
 9584SOL    HW135751   1.599   3.111   4.648 -0.9883 -1.2263  0.1206
 9584SOL    HW235752   1.564   3.238   4.744  2.8661 -0.2705  0.3313
 9585SOL     OW35753   4.289   2.012   4.733  0.0997  0.6280 -0.2735
 9585SOL    HW135754   4.352   2.089   4.724  0.2186  0.5759  0.1195
 9585SOL    HW235755   4.338   1.933   4.770 -0.0685  0.4204 -0.4883
 9586SOL     OW35756   0.322   1.006   0.314 -0.5557  0.0699  0.2940
 9586SOL    HW135757   0.303   0.973   0.222  0.8494  2.0874 -0.7631
 9586SOL    HW235758   0.421   1.015   0.327 -0.8117  1.7440  1.2759
 9587SOL     OW35759   0.841   2.123   6.204  0.2694  0.4693  0.0294
 9587SOL    HW135760   0.922   2.178   6.226  0.8703  0.2870 -1.7203
 9587SOL    HW235761   0.869   2.032   6.176 -0.5586  0.3669 -0.4692
 9588SOL     OW35762   4.688   5.984   6.765 -0.2090  0.6474 -0.0608
 9588SOL    HW135763   4.674   5.953   6.859  1.5364  0.4418  0.1429
 9588SOL    HW235764   4.661   5.912   6.701  0.7423 -0.0548  0.3332
 9589SOL     OW35765   4.688   6.833   6.605  0.5358  0.8738 -0.5031
 9589SOL    HW135766   4.636   6.816   6.521 -0.4201  0.2838  0.2047
 9589SOL    HW235767   4.662   6.921   6.643 -0.4125  0.3163  0.1745
 9590SOL     OW35768   5.866   2.913   5.877  0.3068  0.9218 -0.2011
 9590SOL    HW135769   5.921   2.834   5.904 -0.6741  0.4002  0.3013
 9590SOL    HW235770   5.822   2.896   5.790 -1.1202  0.2871  0.6264
 9591SOL     OW35771   3.505   6.927   6.468  0.1746  0.4095 -0.7600
 9591SOL    HW135772   3.487   7.022   6.443  2.2080  0.9932 -0.0834
 9591SOL    HW235773   3.595   6.900   6.435 -0.5608 -1.4368 -1.3225
 9592SOL     OW35774   3.789   0.295   1.068 -0.5853 -0.2543 -0.1991
 9592SOL    HW135775   3.788   0.337   1.159  1.8938  0.2004 -0.3427
 9592SOL    HW235776   3.707   0.321   1.018 -0.9568  1.2388  1.1613
 9593SOL     OW35777   2.673   4.711   6.105  0.1048 -0.4449  0.3076
 9593SOL    HW135778   2.699   4.620   6.072  0.8317 -0.3735  0.6687
 9593SOL    HW235779   2.754   4.769   6.110 -0.5212  0.5268 -0.8475
 9594SOL     OW35780   5.393   0.503   2.101  0.0486  0.0131  0.0989
 9594SOL    HW135781   5.297   0.481   2.122  0.3381 -2.8906 -1.3492
 9594SOL    HW235782   5.447   0.497   2.185 -0.7050 -0.3133  0.5711
 9595SOL     OW35783   7.062   3.871   4.266 -0.0925 -0.4296  0.4176
 9595SOL    HW135784   7.068   3.797   4.199  0.0071 -1.2027  1.2720
 9595SOL    HW235785   7.108   3.844   4.350 -1.9206 -0.2717  1.5072
 9596SOL     OW35786   0.813   3.956   3.646  0.1222  0.3657  0.5905
 9596SOL    HW135787   0.714   3.968   3.657  0.0780  0.1182  0.4696
 9596SOL    HW235788   0.841   3.870   3.690 -0.0925 -0.7316 -1.3708
 9597SOL     OW35789   1.894   2.787   2.605 -0.0734  0.0755  0.2175
 9597SOL    HW135790   1.869   2.691   2.613 -2.0238  0.3569 -1.8625
 9597SOL    HW235791   1.927   2.805   2.512 -1.9423  1.8855 -0.1170
 9598SOL     OW35792   5.463   3.819   4.227  0.0386 -0.0719  0.2523
 9598SOL    HW135793   5.378   3.848   4.270 -0.5050 -1.2197 -0.0310
 9598SOL    HW235794   5.443   3.772   4.141  0.8657 -1.6356  0.8976
 9599SOL     OW35795   4.960   6.270   3.406 -0.8616  0.2081 -0.2148
 9599SOL    HW135796   4.993   6.197   3.347  0.4979 -0.0411  0.8475
 9599SOL    HW235797   4.893   6.325   3.355  0.8200  0.4464 -2.2415
 9600SOL     OW35798   3.018   0.805   3.620  0.2816 -0.3658  0.3646
 9600SOL    HW135799   3.085   0.744   3.577  0.0265 -0.4834  0.1339
 9600SOL    HW235800   2.955   0.840   3.551 -0.0392 -0.4358  0.6189
 9601SOL     OW35801   5.326   3.348   6.073  0.2992 -0.3603  0.0095
 9601SOL    HW135802   5.374   3.385   5.994 -1.0408 -1.7740 -1.5225
 9601SOL    HW235803   5.287   3.422   6.127  1.1505  0.6156 -0.7067
 9602SOL     OW35804   2.071   2.308   0.606 -0.6330 -0.4657  0.0683
 9602SOL    HW135805   2.135   2.289   0.532 -1.2779 -0.8999 -0.3832
 9602SOL    HW235806   2.001   2.236   0.609 -2.7597  1.4765 -1.2792
 9603SOL     OW35807   0.680   0.704   1.987 -0.0291 -0.0000 -0.2440
 9603SOL    HW135808   0.769   0.708   2.033 -0.2082 -0.5596  0.1746
 9603SOL    HW235809   0.623   0.779   2.019 -0.2949 -0.6196  0.7775
 9604SOL     OW35810   0.423   2.680   6.350  0.0736  0.4217 -0.2898
 9604SOL    HW135811   0.356   2.682   6.424 -0.1106  1.2633 -0.4738
 9604SOL    HW235812   0.488   2.606   6.366 -0.6732 -0.1630  0.0860
 9605SOL     OW35813   6.202   3.569   3.444  0.2936 -0.1357 -0.3274
 9605SOL    HW135814   6.235   3.526   3.360 -0.6418 -1.7022  0.0811
 9605SOL    HW235815   6.178   3.498   3.510 -0.7605  1.0525  0.5811
 9606SOL     OW35816   1.015   4.859   5.161  0.1848 -0.3368 -0.2781
 9606SOL    HW135817   0.973   4.788   5.218  0.2056 -0.3682 -0.3025
 9606SOL    HW235818   1.104   4.883   5.198 -0.6750  1.1283  0.9152
 9607SOL     OW35819   2.169   6.206   4.560 -0.0730  0.1313 -0.0516
 9607SOL    HW135820   2.222   6.144   4.619  0.5787  0.6208 -0.1176
 9607SOL    HW235821   2.168   6.171   4.467 -0.7607 -0.4325  0.1613
 9608SOL     OW35822   5.693   2.425   2.121  0.2381 -1.0705  0.8367
 9608SOL    HW135823   5.634   2.491   2.075  1.8908  0.2791  0.6511
 9608SOL    HW235824   5.747   2.471   2.191  1.9501 -2.0850  0.2123
 9609SOL     OW35825   2.324   2.364   5.026 -1.0527 -0.0669  0.0502
 9609SOL    HW135826   2.356   2.457   5.008 -0.2468 -0.1400  1.1040
 9609SOL    HW235827   2.311   2.351   5.125  1.8571 -2.0490  0.2282
 9610SOL     OW35828   2.945   4.138   1.215 -0.2092 -0.0526  0.1916
 9610SOL    HW135829   2.892   4.056   1.194  0.0613  0.2631 -1.8662
 9610SOL    HW235830   2.890   4.219   1.196  0.2373  0.2524  0.1879
 9611SOL     OW35831   6.151   0.456   2.501 -0.0149 -0.5836 -0.0227
 9611SOL    HW135832   6.208   0.516   2.445  0.5040 -1.1597 -0.1099
 9611SOL    HW235833   6.142   0.367   2.457  1.1026 -1.3285  1.2040
 9612SOL     OW35834   1.897   4.458   0.910 -0.4142  0.2938  0.0643
 9612SOL    HW135835   1.991   4.485   0.929 -0.5079  0.6688 -0.0098
 9612SOL    HW235836   1.834   4.516   0.962 -0.5489 -1.1823  1.6046
 9613SOL     OW35837   3.597   3.122   3.282 -0.1937  0.2985 -0.4757
 9613SOL    HW135838   3.565   3.050   3.344  0.8080  0.4219  0.2018
 9613SOL    HW235839   3.615   3.083   3.192  1.1722 -0.4820  0.1229
 9614SOL     OW35840   0.683   6.371   6.554  0.1859 -0.4042 -0.0017
 9614SOL    HW135841   0.761   6.377   6.616  0.5813  1.5884 -0.6590
 9614SOL    HW235842   0.599   6.354   6.607  0.2619  2.9280  1.2988
 9615SOL     OW35843   6.578   2.534   1.501 -0.3951 -0.2024 -0.6660
 9615SOL    HW135844   6.569   2.448   1.551 -2.2801  0.4322  0.1070
 9615SOL    HW235845   6.524   2.530   1.417  0.6024 -0.2530 -1.3233
 9616SOL     OW35846   0.815   6.604   5.745  0.0700 -0.1718  0.1197
 9616SOL    HW135847   0.816   6.704   5.744  0.0287 -0.1635  0.7575
 9616SOL    HW235848   0.887   6.569   5.685 -0.8729  0.2386 -1.2831
 9617SOL     OW35849   2.080   3.015   1.891 -0.1810 -0.4234 -0.0691
 9617SOL    HW135850   2.066   2.935   1.832 -0.1220  1.7058 -3.0801
 9617SOL    HW235851   2.012   3.015   1.964 -0.0529 -3.3074  0.1235
 9618SOL     OW35852   2.854   0.890   1.422 -0.0352  0.2158  0.1403
 9618SOL    HW135853   2.820   0.984   1.428  0.2354  0.5020 -2.1535
 9618SOL    HW235854   2.931   0.887   1.358 -0.0535 -1.5556  0.1857
 9619SOL     OW35855   6.075   1.753   6.274  0.4983  0.5017  1.3980
 9619SOL    HW135856   6.124   1.708   6.200 -1.4573 -1.8342  1.4457
 9619SOL    HW235857   6.135   1.764   6.353  1.0280 -2.1453  1.4113
 9620SOL     OW35858   6.409   5.118   5.881 -0.3983  0.6219 -0.2626
 9620SOL    HW135859   6.398   5.019   5.880 -0.1546  0.5925 -0.1693
 9620SOL    HW235860   6.394   5.155   5.790  0.4065  0.3978 -0.4896
 9621SOL     OW35861   0.850   2.500   2.497 -0.3116 -0.5328 -0.3702
 9621SOL    HW135862   0.764   2.529   2.541  0.1889  1.6062 -0.7554
 9621SOL    HW235863   0.855   2.538   2.405  1.1783 -0.4027 -0.2499
 9622SOL     OW35864   5.544   4.465   6.322  0.3102  0.1485  0.4255
 9622SOL    HW135865   5.595   4.460   6.236  0.2537  1.5819  0.2987
 9622SOL    HW235866   5.503   4.376   6.341 -1.1430  0.2692 -1.9257
 9623SOL     OW35867   4.338   2.274   1.750 -0.0131 -0.5437  0.0638
 9623SOL    HW135868   4.251   2.267   1.798 -0.9170  1.9599 -1.1444
 9623SOL    HW235869   4.379   2.363   1.767  1.3316 -0.9426 -0.9956
 9624SOL     OW35870   0.763   5.219   6.976  0.2520 -0.0171  0.3491
 9624SOL    HW135871   0.705   5.292   7.012  1.0314 -0.2067  2.0487
 9624SOL    HW235872   0.708   5.157   6.920 -1.2890 -0.4164  2.2649
 9625SOL     OW35873   5.784   2.032   3.291  0.1379  0.6516 -0.0211
 9625SOL    HW135874   5.876   2.048   3.328  0.4260  2.5543 -1.4792
 9625SOL    HW235875   5.784   2.052   3.194 -2.0981  1.7217  0.1816
 9626SOL     OW35876   0.476   3.242   2.938 -0.7537  0.5655 -0.2938
 9626SOL    HW135877   0.562   3.287   2.914 -1.1120  0.5753 -1.5858
 9626SOL    HW235878   0.475   3.149   2.902 -1.6074  0.8286 -0.9636
 9627SOL     OW35879   6.474   2.378   5.405  0.2063  0.2582  0.7045
 9627SOL    HW135880   6.394   2.319   5.411 -0.7425  1.3303 -1.1501
 9627SOL    HW235881   6.474   2.442   5.482 -0.7158  0.2623  0.7078
 9628SOL     OW35882   4.969   5.443   4.362  0.2321  0.2873 -0.2939
 9628SOL    HW135883   4.945   5.460   4.457 -2.8177  1.5178 -1.2054
 9628SOL    HW235884   5.006   5.350   4.353 -0.3039 -0.1722  1.9545
 9629SOL     OW35885   3.706   1.022   3.440 -0.3227  1.2822 -0.0394
 9629SOL    HW135886   3.675   0.929   3.425  0.3698  1.0350  0.0562
 9629SOL    HW235887   3.627   1.083   3.445 -0.7727  0.7108 -0.1471
 9630SOL     OW35888   4.016   4.822   3.417 -0.0409  0.0782  0.2976
 9630SOL    HW135889   3.954   4.828   3.495  0.1897  0.7347  0.4327
 9630SOL    HW235890   4.095   4.765   3.441  0.0533  0.3159  0.5631
 9631SOL     OW35891   3.478   1.733   5.570 -0.4381 -0.5655 -0.4503
 9631SOL    HW135892   3.517   1.775   5.652 -0.2006  0.4941 -1.0829
 9631SOL    HW235893   3.538   1.660   5.537 -0.8470 -1.4084  0.6624
 9632SOL     OW35894   0.366   2.416   5.155  0.2452  0.1586  0.2572
 9632SOL    HW135895   0.389   2.321   5.132  0.1945  0.8217 -2.7132
 9632SOL    HW235896   0.423   2.447   5.231  0.1062 -2.2964  1.4211
 9633SOL     OW35897   7.249   3.172   2.028  0.5243  0.5394  0.9711
 9633SOL    HW135898   7.314   3.104   2.059  0.7070 -0.1520 -0.8674
 9633SOL    HW235899   7.252   3.178   1.928 -0.6810  2.0401  1.0080
 9634SOL     OW35900   2.724   0.983   6.256 -0.6116 -0.0280  0.3273
 9634SOL    HW135901   2.701   1.068   6.304 -1.3252 -0.2608  0.4020
 9634SOL    HW235902   2.753   0.914   6.322  3.6538  1.2741 -0.0083
 9635SOL     OW35903   6.490   6.531   6.130 -0.0508  0.3080 -0.2031
 9635SOL    HW135904   6.558   6.506   6.060  1.6068  1.6479  0.9020
 9635SOL    HW235905   6.433   6.606   6.096 -0.6564 -0.4546 -0.9150
 9636SOL     OW35906   5.109   1.087   0.740 -0.2496  0.0872  0.0481
 9636SOL    HW135907   5.119   1.061   0.644  1.0923  2.3397 -0.4390
 9636SOL    HW235908   5.016   1.118   0.757 -0.5732 -0.6093 -0.4315
 9637SOL     OW35909   0.352   1.995   0.866 -0.6617  0.5229  0.2468
 9637SOL    HW135910   0.286   1.921   0.862 -0.6440  0.5517 -0.6875
 9637SOL    HW235911   0.445   1.958   0.866 -0.6722  0.4229  2.9643
 9638SOL     OW35912   0.379   4.960   3.720 -0.2252 -0.2551 -0.0435
 9638SOL    HW135913   0.459   5.018   3.737 -0.0630 -0.4476 -0.1455
 9638SOL    HW235914   0.387   4.918   3.630 -0.8615  0.3935 -0.3996
 9639SOL     OW35915   0.785   2.731   0.944 -0.2759 -0.3790  0.3096
 9639SOL    HW135916   0.813   2.823   0.972 -1.0693 -0.1484  0.3477
 9639SOL    HW235917   0.691   2.734   0.910  0.1130 -0.9517 -0.8379
 9640SOL     OW35918   5.788   2.856   5.638  0.0359 -0.1195 -0.4279
 9640SOL    HW135919   5.710   2.914   5.615 -1.5878 -2.2692 -0.5080
 9640SOL    HW235920   5.835   2.829   5.554  1.1311  1.4835 -0.3560
 9641SOL     OW35921   7.009   3.266   3.819 -0.4233 -0.2161  0.0174
 9641SOL    HW135922   7.100   3.242   3.787  0.6560  2.8029  0.6369
 9641SOL    HW235923   6.942   3.251   3.746  1.0749  0.6492 -1.5669
 9642SOL     OW35924   6.855   5.756   6.336  0.4297 -0.2489 -0.3896
 9642SOL    HW135925   6.826   5.850   6.354 -0.2290 -1.1358  3.6559
 9642SOL    HW235926   6.947   5.742   6.372  0.9827 -0.8546 -2.0043
 9643SOL     OW35927   6.189   2.644   4.010  0.7946  0.3830 -0.3771
 9643SOL    HW135928   6.227   2.661   3.919 -0.3390 -0.3487 -0.9949
 9643SOL    HW235929   6.105   2.590   4.002  0.8402  0.0630  1.1249
 9644SOL     OW35930   1.932   6.298   2.925 -0.5789  0.0053  0.4127
 9644SOL    HW135931   1.909   6.222   2.865  1.4861 -0.1561 -0.2104
 9644SOL    HW235932   1.855   6.362   2.928 -2.5315 -2.2925  1.3171
 9645SOL     OW35933   3.045   4.750   3.912  0.3313 -0.1593  0.1186
 9645SOL    HW135934   3.085   4.678   3.968 -0.5823 -1.4545 -0.8418
 9645SOL    HW235935   3.111   4.778   3.842  0.4844 -0.4871  0.1306
 9646SOL     OW35936   4.783   0.778   6.095  0.5563 -0.5295 -0.2644
 9646SOL    HW135937   4.800   0.691   6.140  0.1656 -0.8197 -0.6764
 9646SOL    HW235938   4.693   0.812   6.121  0.7521 -0.1981 -0.0198
 9647SOL     OW35939   3.461   2.354   2.029 -0.4785 -0.8171 -0.0883
 9647SOL    HW135940   3.377   2.300   2.029  0.8403 -2.8997  0.4752
 9647SOL    HW235941   3.527   2.314   1.966  0.6244 -0.0357  0.5406
 9648SOL     OW35942   6.265   4.095   3.613 -0.0539 -0.0176 -0.1220
 9648SOL    HW135943   6.219   4.078   3.700  1.4888 -0.3652  0.6527
 9648SOL    HW235944   6.212   4.055   3.539 -0.6967 -0.9140  0.8063
 9649SOL     OW35945   6.305   3.556   5.659 -0.4541 -0.2231 -0.3751
 9649SOL    HW135946   6.345   3.645   5.681 -0.1174 -0.6315  0.6826
 9649SOL    HW235947   6.288   3.551   5.561  1.0873  0.3646 -0.6837
 9650SOL     OW35948   2.414   3.041   6.264 -0.3693 -0.1292  0.3749
 9650SOL    HW135949   2.483   3.108   6.237 -0.9660  0.3191 -0.0615
 9650SOL    HW235950   2.369   3.071   6.348 -0.3405 -0.2074  0.4187
 9651SOL     OW35951   5.718   0.108   2.889 -0.2101  0.5701  0.2113
 9651SOL    HW135952   5.738   0.176   2.818 -1.8929  0.8679  0.0159
 9651SOL    HW235953   5.685   0.155   2.971 -1.3178  0.0025  0.0932
 9652SOL     OW35954   3.347   5.787   7.335 -0.2056 -0.3536  0.1034
 9652SOL    HW135955   3.348   5.777   7.236  0.8415  2.9563 -0.2823
 9652SOL    HW235956   3.436   5.817   7.367 -0.7435 -0.6742  1.9773
 9653SOL     OW35957   4.840   0.271   5.359  0.0902 -0.2693  1.0556
 9653SOL    HW135958   4.803   0.301   5.271  0.4310  0.1251  1.0435
 9653SOL    HW235959   4.826   0.173   5.369 -1.4983 -0.0150  1.3264
 9654SOL     OW35960   7.110   0.053   1.010  0.3494 -0.4753  0.3626
 9654SOL    HW135961   7.189   0.113   1.022 -0.0667 -0.0285  0.9055
 9654SOL    HW235962   7.080   0.056   0.915  1.6454 -1.4771 -0.0945
 9655SOL     OW35963   3.115   6.586   5.583 -0.2354 -0.5369  0.9369
 9655SOL    HW135964   3.144   6.501   5.627 -0.7127 -0.0405  2.2612
 9655SOL    HW235965   3.029   6.616   5.624 -1.5581 -0.9032 -1.4929
 9656SOL     OW35966   2.842   3.986   1.958 -0.2834 -0.1885 -0.0310
 9656SOL    HW135967   2.755   3.951   1.925 -0.4828 -0.6539  0.9738
 9656SOL    HW235968   2.840   4.086   1.960 -0.5854 -0.1820 -0.5371
 9657SOL     OW35969   6.845   4.545   0.294  0.3873  0.4466 -0.3567
 9657SOL    HW135970   6.826   4.447   0.299  0.3208  0.4572 -0.4100
 9657SOL    HW235971   6.760   4.596   0.298  0.4056  0.4939 -0.5585
 9658SOL     OW35972   5.884   3.660   2.311  0.2858  0.0639 -0.0453
 9658SOL    HW135973   5.923   3.728   2.374  0.1901  0.4533 -0.4008
 9658SOL    HW235974   5.799   3.625   2.349 -0.3789  1.1552 -0.4786
 9659SOL     OW35975   0.201   2.198   3.974 -0.1117  0.6038 -0.1611
 9659SOL    HW135976   0.127   2.140   4.007 -1.2218  1.2052 -1.5783
 9659SOL    HW235977   0.170   2.250   3.895  1.0175  2.7711  0.7831
 9660SOL     OW35978   5.639   1.085   5.084  0.4581  0.4947 -0.4424
 9660SOL    HW135979   5.609   1.004   5.134 -1.5362  1.9837  0.8257
 9660SOL    HW235980   5.676   1.057   4.995 -1.9555 -1.6613 -0.8217
 9661SOL     OW35981   2.878   0.944   3.413  0.3230 -0.0117 -0.2637
 9661SOL    HW135982   2.801   1.007   3.428  0.2069 -0.4490  1.0870
 9661SOL    HW235983   2.964   0.994   3.426  0.2513  0.1808 -0.5235
 9662SOL     OW35984   3.331   3.133   0.027  0.0201 -0.0832 -0.1275
 9662SOL    HW135985   3.341   3.158  -0.070 -2.2446  0.3743 -0.2657
 9662SOL    HW235986   3.241   3.094   0.042 -0.1013  0.9929  2.0468
 9663SOL     OW35987   3.633   4.683   3.503 -0.2754  0.1409 -0.6416
 9663SOL    HW135988   3.687   4.722   3.577  0.5466 -0.5265 -0.8840
 9663SOL    HW235989   3.691   4.669   3.423 -1.1025  0.6219 -1.3314
 9664SOL     OW35990   4.123   6.675   2.259 -0.1026  1.1539  0.1712
 9664SOL    HW135991   4.146   6.708   2.168  1.6608  0.6010  0.3860
 9664SOL    HW235992   4.059   6.598   2.251  2.7641 -1.2364 -0.8569
 9665SOL     OW35993   6.890   5.397   2.917 -0.2100  0.0286 -0.2469
 9665SOL    HW135994   6.984   5.368   2.901 -0.4920 -0.9723 -0.0965
 9665SOL    HW235995   6.850   5.431   2.832  0.6335  1.4731 -0.0778
 9666SOL     OW35996   4.661   3.600   1.523 -0.4611 -0.2284  0.4554
 9666SOL    HW135997   4.596   3.633   1.591 -1.7201 -0.0345 -0.8279
 9666SOL    HW235998   4.632   3.629   1.432  0.2942 -1.9380 -0.3526
 9667SOL     OW35999   2.302   6.568   7.313  0.8344 -0.5105  0.5876
 9667SOL    HW136000   2.237   6.630   7.356  0.5085 -0.7697  0.4649
 9667SOL    HW236001   2.374   6.545   7.380  0.2481 -1.0269  1.0531
 9668SOL     OW36002   1.703   4.827   3.201  0.6652  0.1057  0.0789
 9668SOL    HW136003   1.637   4.764   3.242  1.7860 -1.3863 -0.3480
 9668SOL    HW236004   1.781   4.838   3.262  1.1505 -0.0921 -0.5019
 9669SOL     OW36005   2.904   4.271   5.848  0.4176 -0.3114 -0.3597
 9669SOL    HW136006   2.929   4.291   5.942  0.1886 -0.8405 -0.1829
 9669SOL    HW236007   2.845   4.344   5.813  0.7255  0.0203 -0.1807
 9670SOL     OW36008   5.042   1.128   2.623 -0.2434  0.0412 -0.1972
 9670SOL    HW136009   4.968   1.194   2.625 -0.2175  0.0707 -0.2237
 9670SOL    HW236010   5.106   1.151   2.549  0.3066  0.5731  0.4356
 9671SOL     OW36011   2.875   4.984   1.287 -0.1354  0.0578 -0.4592
 9671SOL    HW136012   2.899   4.891   1.259 -0.3528 -0.1014 -0.1164
 9671SOL    HW236013   2.858   5.040   1.206 -0.2056 -0.2562 -0.6619
 9672SOL     OW36014   2.532   0.028   1.071 -0.2187 -0.0853 -0.6829
 9672SOL    HW136015   2.593   0.034   0.992  1.2338  1.7525  0.5384
 9672SOL    HW236016   2.536  -0.064   1.109  1.5641 -0.0671 -0.8005
 9673SOL     OW36017   6.620   0.420   6.416  0.1620  0.4562 -0.0475
 9673SOL    HW136018   6.530   0.417   6.461  0.4252  1.0954  0.5282
 9673SOL    HW236019   6.677   0.345   6.450  0.3038  0.8402  0.5668
 9674SOL     OW36020   2.183   1.520   6.633 -0.7099 -0.4869 -0.1289
 9674SOL    HW136021   2.272   1.486   6.601 -0.3919 -0.6595  0.9128
 9674SOL    HW236022   2.130   1.443   6.670 -1.3371 -0.4001 -0.8305
 9675SOL     OW36023   4.648   0.402   2.189 -0.0538 -0.2510  0.6199
 9675SOL    HW136024   4.721   0.340   2.158  0.3094 -0.5302  1.9940
 9675SOL    HW236025   4.591   0.354   2.256  0.1340  0.8423  1.5718
 9676SOL     OW36026   7.045   2.794   0.122  0.0795 -0.1791 -0.5664
 9676SOL    HW136027   7.096   2.710   0.103  1.5097  0.4912  0.2378
 9676SOL    HW236028   7.008   2.790   0.214  2.0628  0.9913  0.3200
 9677SOL     OW36029   4.753   1.944   7.033  0.5529 -0.4194  0.4844
 9677SOL    HW136030   4.727   1.877   7.102  1.3004  0.4178  1.6076
 9677SOL    HW236031   4.703   2.029   7.048  1.8275  0.2705  0.9387
 9678SOL     OW36032   3.198   4.271   1.205  0.3730  0.3560 -0.0815
 9678SOL    HW136033   3.175   4.353   1.154  0.3991  1.3251  1.4370
 9678SOL    HW236034   3.122   4.206   1.200 -0.2330  1.0667 -0.0826
 9679SOL     OW36035   0.096   2.252   2.536  0.5265 -0.0498  0.0409
 9679SOL    HW136036   0.034   2.302   2.596 -0.2810 -0.1356 -0.7185
 9679SOL    HW236037   0.094   2.293   2.445  1.2953 -0.2970 -0.0940
 9680SOL     OW36038   1.136   5.269   1.914 -0.3387  0.3873  0.4120
 9680SOL    HW136039   1.051   5.282   1.862 -0.4861  1.0170  0.7988
 9680SOL    HW236040   1.149   5.347   1.976  1.1742  0.9046 -0.5464
 9681SOL     OW36041   4.584   5.440   2.517 -0.0260 -0.2481 -0.5243
 9681SOL    HW136042   4.505   5.414   2.462  1.6041  0.3121 -3.2244
 9681SOL    HW236043   4.618   5.529   2.487  0.1272  0.6862  2.3034
 9682SOL     OW36044   3.073   7.100   1.520  0.5168 -0.5495  0.1701
 9682SOL    HW136045   2.974   7.110   1.534  0.4612 -0.0816 -0.5120
 9682SOL    HW236046   3.119   7.091   1.608  0.0953  1.4240  0.5921
 9683SOL     OW36047   0.682   3.717   5.183 -0.2369  0.2294 -0.0380
 9683SOL    HW136048   0.722   3.695   5.094  0.0054  1.4962 -0.2491
 9683SOL    HW236049   0.619   3.644   5.210  1.7158 -1.4898  0.0118
 9684SOL     OW36050   4.033   3.092   2.454 -0.4443 -0.1804  0.4608
 9684SOL    HW136051   3.939   3.125   2.455 -1.1209 -2.0168  0.7861
 9684SOL    HW236052   4.054   3.051   2.365 -1.1336 -2.9128  1.5111
 9685SOL     OW36053   4.700   2.145   5.781 -0.0731 -0.3684 -0.4789
 9685SOL    HW136054   4.620   2.154   5.839 -0.1890  0.5973 -0.7837
 9685SOL    HW236055   4.672   2.151   5.685  0.6809  2.6718 -0.5455
 9686SOL     OW36056   0.277   4.367   1.557  0.3109  0.5320  0.1463
 9686SOL    HW136057   0.186   4.367   1.516 -0.0150 -0.6018  0.8389
 9686SOL    HW236058   0.337   4.306   1.506  0.1809 -0.0998  0.7316
 9687SOL     OW36059   5.606   6.757   7.114  0.1990 -0.4087 -0.2340
 9687SOL    HW136060   5.571   6.758   7.021  2.2587  1.3171 -1.0342
 9687SOL    HW236061   5.530   6.749   7.178 -1.1341 -3.0989 -2.0843
 9688SOL     OW36062   0.385   5.708   6.491  0.3801 -0.6007  0.3755
 9688SOL    HW136063   0.391   5.612   6.464  3.4779 -0.5535  0.6427
 9688SOL    HW236064   0.413   5.766   6.414  0.7506 -0.0549  0.9135
 9689SOL     OW36065   6.110   2.037   1.146 -0.3271  0.3016 -0.0131
 9689SOL    HW136066   6.017   2.008   1.169 -0.8017  1.7557 -0.0562
 9689SOL    HW236067   6.114   2.062   1.050  0.0281  0.5760  0.0736
 9690SOL     OW36068   7.043   4.866   4.483  0.4014  0.7766 -0.1760
 9690SOL    HW136069   7.024   4.855   4.386  2.4032  2.5771 -0.8290
 9690SOL    HW236070   7.137   4.840   4.502 -0.1634 -0.1735  1.4128
 9691SOL     OW36071   1.654   6.368   7.339  0.3611 -0.5109 -0.1168
 9691SOL    HW136072   1.586   6.375   7.267 -0.0233  0.4921  0.3310
 9691SOL    HW236073   1.684   6.273   7.349  0.6708 -0.6007 -1.8168
 9692SOL     OW36074   4.591   5.914   2.543  0.4148  0.0637 -0.6626
 9692SOL    HW136075   4.521   5.919   2.473  0.2052 -0.8848 -0.5274
 9692SOL    HW236076   4.657   5.989   2.530 -0.7551  1.1137 -0.6241
 9693SOL     OW36077   2.313   2.918   2.022 -0.4134  0.4975 -0.3064
 9693SOL    HW136078   2.220   2.945   1.999 -0.8923  0.6498  1.7061
 9693SOL    HW236079   2.354   2.871   1.945 -2.5132 -0.4800 -0.8610
 9694SOL     OW36080   3.778   4.631   3.278  0.2596  0.5418 -0.2399
 9694SOL    HW136081   3.838   4.672   3.209 -1.1524  3.4702  0.2353
 9694SOL    HW236082   3.693   4.601   3.235 -0.4345  1.9549  0.1330
 9695SOL     OW36083   1.526   5.618   5.031 -0.1768 -0.2766 -0.1510
 9695SOL    HW136084   1.454   5.557   4.998  0.2302 -0.6934 -0.2762
 9695SOL    HW236085   1.615   5.585   5.000  0.1682 -0.3932  0.9500
 9696SOL     OW36086   3.791   6.811   6.422 -0.8322 -0.1761 -0.3204
 9696SOL    HW136087   3.773   6.720   6.458  3.1564 -0.2950  1.6552
 9696SOL    HW236088   3.859   6.804   6.348 -1.8075  1.0561 -1.3639
 9697SOL     OW36089   2.314   2.793   3.906 -0.0703  0.1823 -0.1179
 9697SOL    HW136090   2.316   2.838   3.817  0.3015  0.1134 -0.1446
 9697SOL    HW236091   2.344   2.698   3.897 -0.9866 -0.1080 -0.0808
 9698SOL     OW36092   4.504   4.553   6.510 -0.0918 -0.7085 -0.2992
 9698SOL    HW136093   4.501   4.638   6.562 -1.7568 -1.5112  0.9961
 9698SOL    HW236094   4.539   4.570   6.418 -0.5613  1.4033 -0.1017
 9699SOL     OW36095   5.758   3.094   2.083  0.4815 -0.0822 -0.0182
 9699SOL    HW136096   5.838   3.154   2.076  1.8162 -1.6616  1.4480
 9699SOL    HW236097   5.725   3.094   2.178 -0.6420 -0.2712 -0.3979
 9700SOL     OW36098   4.941   1.395   4.209 -0.6687 -0.4266 -0.0225
 9700SOL    HW136099   4.977   1.316   4.260 -0.4849 -0.7267 -0.6140
 9700SOL    HW236100   5.000   1.474   4.225 -1.2590 -0.2134  1.1509
 9701SOL     OW36101   4.224   6.734   5.991 -0.1389 -0.4664 -0.5445
 9701SOL    HW136102   4.153   6.708   6.056  0.8712  2.3444  1.7941
 9701SOL    HW236103   4.313   6.700   6.023  0.3340  0.7511 -0.5480
 9702SOL     OW36104   0.058   5.596   0.649 -0.2868  0.0645  0.2100
 9702SOL    HW136105   0.021   5.669   0.592  0.3993  1.0180  0.9535
 9702SOL    HW236106   0.061   5.627   0.744 -0.7384 -1.2349  0.6630
 9703SOL     OW36107   4.444   3.975   0.160  0.3158  0.3295  0.4600
 9703SOL    HW136108   4.427   3.993   0.257 -0.5034 -2.2163  0.8192
 9703SOL    HW236109   4.532   3.929   0.150  0.9832  1.6974 -0.1604
 9704SOL     OW36110   7.098   1.953   4.497  0.6979 -0.0486  0.3497
 9704SOL    HW136111   7.010   1.947   4.448  0.3683  2.0356  0.6097
 9704SOL    HW236112   7.168   1.906   4.444  0.2601  1.7676 -1.9781
 9705SOL     OW36113   6.407   5.349   3.589  0.0460 -0.1382  0.3170
 9705SOL    HW136114   6.323   5.314   3.548  0.1419 -0.3700  0.3188
 9705SOL    HW236115   6.399   5.349   3.688  0.3875 -1.0162  0.3501
 9706SOL     OW36116   6.901   6.189   6.138 -0.3350 -0.2243  0.4518
 9706SOL    HW136117   6.929   6.248   6.062  1.0123 -0.1709  0.9611
 9706SOL    HW236118   6.917   6.094   6.114  1.0098 -0.1568  1.0025
 9707SOL     OW36119   4.762   3.860   6.980  0.2569 -0.2269  0.3219
 9707SOL    HW136120   4.817   3.913   6.915 -0.4000  1.2212  0.9466
 9707SOL    HW236121   4.727   3.778   6.934 -0.0796  0.7140 -1.1236
 9708SOL     OW36122   0.038   3.773   6.750  0.3154 -0.3829 -0.0086
 9708SOL    HW136123  -0.006   3.863   6.755 -0.0140 -0.5142 -0.4757
 9708SOL    HW236124   0.103   3.763   6.825  0.1460  0.1379  0.2078
 9709SOL     OW36125   4.622   4.636   1.812  0.1782 -0.4271  0.3319
 9709SOL    HW136126   4.592   4.710   1.872 -1.0852 -0.2587 -0.4884
 9709SOL    HW236127   4.666   4.675   1.731 -0.9511 -0.5350 -0.3494
 9710SOL     OW36128   3.134   2.858   1.334  0.1431 -0.0981  0.3095
 9710SOL    HW136129   3.129   2.820   1.427 -3.0199 -0.5796 -0.0144
 9710SOL    HW236130   3.068   2.812   1.275  1.7132  0.6056 -2.0698
 9711SOL     OW36131   3.157   0.741   3.077  0.3596  0.1232 -0.6387
 9711SOL    HW136132   3.059   0.723   3.076  0.0443  1.7034  0.2505
 9711SOL    HW236133   3.179   0.804   3.151  1.9853  0.1362 -1.1045
 9712SOL     OW36134   6.684   4.138   0.694 -0.0644  0.4817  0.4665
 9712SOL    HW136135   6.754   4.185   0.749 -0.5540  2.2247 -0.3772
 9712SOL    HW236136   6.610   4.107   0.754  0.3519  0.6329  1.0650
 9713SOL     OW36137   6.945   4.118   6.975 -0.1018  0.1909 -0.0482
 9713SOL    HW136138   6.853   4.109   7.014 -0.1866 -1.2114 -0.5308
 9713SOL    HW236139   6.947   4.075   6.884  1.4768 -1.4570  0.7162
 9714SOL     OW36140   3.651   4.762   2.820  0.5713  0.2945  0.1021
 9714SOL    HW136141   3.694   4.678   2.786 -2.3988 -1.1712 -0.1593
 9714SOL    HW236142   3.599   4.742   2.903 -0.2432  1.8635 -0.0158
 9715SOL     OW36143   0.723   4.374   6.434 -0.3106  0.1535  0.4011
 9715SOL    HW136144   0.689   4.457   6.391 -0.0412  0.7431  1.3117
 9715SOL    HW236145   0.806   4.343   6.387  0.4520  1.2592  1.0008
 9716SOL     OW36146   1.673   1.770   0.622 -0.3281 -0.3549 -0.6430
 9716SOL    HW136147   1.729   1.824   0.686  0.2053  1.0210 -2.2409
 9716SOL    HW236148   1.651   1.825   0.542 -0.9013 -2.0946 -1.7113
 9717SOL     OW36149   5.648   1.349   1.253  0.5717  0.0033  0.3538
 9717SOL    HW136150   5.566   1.296   1.232 -0.0942  1.2651 -0.2821
 9717SOL    HW236151   5.727   1.288   1.254 -0.3023 -1.1541  0.5294
 9718SOL     OW36152   2.504   0.029   0.061 -0.1621  0.1942  0.2646
 9718SOL    HW136153   2.580   0.036   0.125  1.3025 -1.8140 -1.1823
 9718SOL    HW236154   2.510   0.101  -0.008  0.3111  0.1576  0.2700
 9719SOL     OW36155   6.309   5.616   0.127  0.4080  0.2518  0.3897
 9719SOL    HW136156   6.352   5.630   0.038 -0.2191 -1.0007 -0.1220
 9719SOL    HW236157   6.242   5.541   0.121  0.6090 -0.0837  1.9960
 9720SOL     OW36158   6.080   7.017   5.946 -0.2685  0.0033  0.1175
 9720SOL    HW136159   5.992   6.998   5.988 -0.3898 -0.0556 -0.1596
 9720SOL    HW236160   6.106   6.941   5.886 -1.3742  1.2473 -2.0120
 9721SOL     OW36161   3.760   2.244   6.196  0.2780  0.1970  0.2773
 9721SOL    HW136162   3.792   2.278   6.107  0.6704 -1.4909 -0.2435
 9721SOL    HW236163   3.838   2.216   6.251  0.0163  1.0022  1.0718
 9722SOL     OW36164   3.339   0.970   3.310 -0.3639 -0.0547 -0.2921
 9722SOL    HW136165   3.270   0.943   3.377 -1.5160  2.5733 -0.3636
 9722SOL    HW236166   3.294   1.012   3.231  1.2295  0.1034 -1.1357
 9723SOL     OW36167   3.576   0.725   6.858 -0.2842  0.6184  0.0756
 9723SOL    HW136168   3.544   0.782   6.934  1.9297  1.6751  0.2591
 9723SOL    HW236169   3.595   0.633   6.891  0.4056  1.0028  0.7701
 9724SOL     OW36170   4.405   5.948   3.877  0.1297 -0.1037 -0.9224
 9724SOL    HW136171   4.329   5.998   3.835  1.0356  0.7225 -1.6152
 9724SOL    HW236172   4.403   5.960   3.976  0.8194  2.0339 -1.1364
 9725SOL     OW36173   0.849   4.548   1.745  0.0268 -0.1834  0.2082
 9725SOL    HW136174   0.882   4.453   1.748 -1.8595 -0.8215  1.0169
 9725SOL    HW236175   0.888   4.594   1.665  0.4926 -1.8128 -0.5188
 9726SOL     OW36176   2.989   5.051   0.240  0.4772  0.3002 -0.2351
 9726SOL    HW136177   2.992   5.018   0.145  0.9430 -0.9299  0.2056
 9726SOL    HW236178   3.045   4.992   0.298 -0.0782  0.8502  0.8721
 9727SOL     OW36179   5.404   0.325   1.159  0.3370 -0.0095 -0.4269
 9727SOL    HW136180   5.381   0.273   1.077 -1.8810  0.2597 -0.0091
 9727SOL    HW236181   5.429   0.418   1.134  0.8177 -0.2568 -0.8809
 9728SOL     OW36182   3.200   2.264   2.618  0.2825 -0.0633 -0.1220
 9728SOL    HW136183   3.173   2.179   2.572 -0.7298  0.8272 -1.2001
 9728SOL    HW236184   3.290   2.251   2.661 -0.1533 -1.8840  0.3161
 9729SOL     OW36185   4.581   6.817   1.903  0.4260  0.3428  0.5208
 9729SOL    HW136186   4.512   6.856   1.842  0.1155 -0.3534  0.4189
 9729SOL    HW236187   4.557   6.722   1.924  0.1885  0.7534  2.2335
 9730SOL     OW36188   0.718   1.320   1.780 -0.3287 -0.2532 -0.4552
 9730SOL    HW136189   0.670   1.275   1.705  0.8646 -0.8185 -0.8978
 9730SOL    HW236190   0.674   1.407   1.801 -0.1091  0.3496 -2.4493
 9731SOL     OW36191   0.735   3.497   3.762 -0.4721  0.1220  0.0753
 9731SOL    HW136192   0.721   3.590   3.730  0.8060  0.4022  0.2999
 9731SOL    HW236193   0.831   3.471   3.749 -0.3491 -0.4255  1.8758
 9732SOL     OW36194   6.415   4.826   4.568 -0.3885  0.2928 -0.2758
 9732SOL    HW136195   6.513   4.836   4.587 -0.7964  1.6684  1.1188
 9732SOL    HW236196   6.404   4.779   4.480  1.4984 -2.2359  0.7465
 9733SOL     OW36197   1.262   2.246   6.951 -1.2895  0.1482 -0.4841
 9733SOL    HW136198   1.320   2.165   6.956  0.1867  1.1815 -0.7030
 9733SOL    HW236199   1.280   2.306   7.029  1.5712  2.8382 -3.0669
 9734SOL     OW36200   6.331   1.952   3.454  0.0723 -0.2123  0.1483
 9734SOL    HW136201   6.286   2.041   3.452  0.5496  0.0392  0.3841
 9734SOL    HW236202   6.422   1.960   3.412 -0.3604 -0.8599 -0.9279
 9735SOL     OW36203   1.248   6.185   7.090 -0.3749  0.0197 -0.1438
 9735SOL    HW136204   1.218   6.179   7.185 -0.7260 -0.2890 -0.2759
 9735SOL    HW236205   1.235   6.097   7.045 -0.4551  0.2415 -0.5551
 9736SOL     OW36206   1.223   4.603   5.166  0.2811 -0.1509 -1.3218
 9736SOL    HW136207   1.149   4.605   5.098 -0.9677 -0.2596  0.0029
 9736SOL    HW236208   1.229   4.692   5.211  0.1550 -0.5171 -0.5799
 9737SOL     OW36209   4.922   6.196   0.544  0.6540 -0.0239  0.6530
 9737SOL    HW136210   4.824   6.214   0.550  0.1070 -2.4691 -0.5495
 9737SOL    HW236211   4.969   6.277   0.507 -1.0425  0.7361  0.1322
 9738SOL     OW36212   6.387   6.098   0.350 -0.1856  0.9847 -0.2139
 9738SOL    HW136213   6.463   6.039   0.320 -0.4026  0.0897  0.9735
 9738SOL    HW236214   6.325   6.113   0.273 -1.4483 -2.4050  0.0318
 9739SOL     OW36215   5.099   1.383   1.125  0.3119 -0.7010 -0.3551
 9739SOL    HW136216   5.113   1.294   1.083  1.3629 -0.7983  0.1898
 9739SOL    HW236217   5.118   1.377   1.223 -0.2492 -0.0335 -0.2005
 9740SOL     OW36218   1.524   1.392   2.894 -0.2942  0.2882  0.1065
 9740SOL    HW136219   1.613   1.354   2.921 -0.5453  1.0725  2.1765
 9740SOL    HW236220   1.457   1.318   2.886  0.0728 -0.0963  0.5312
 9741SOL     OW36221   6.278   6.874   5.327  0.7408  0.0705 -0.7146
 9741SOL    HW136222   6.225   6.937   5.271 -1.2144 -1.4183 -0.5874
 9741SOL    HW236223   6.285   6.786   5.280  0.9912 -0.4996  0.3823
 9742SOL     OW36224   6.499   5.321   6.615 -0.2484  0.2753 -0.4847
 9742SOL    HW136225   6.573   5.279   6.562  0.8104  0.9387  0.4468
 9742SOL    HW236226   6.485   5.270   6.699  0.5925  1.3628  0.3377
 9743SOL     OW36227   6.937   1.659   1.264 -0.3609 -0.2886 -0.4522
 9743SOL    HW136228   6.867   1.729   1.249 -2.4410 -2.3932 -0.9862
 9743SOL    HW236229   6.980   1.673   1.353  1.3318  3.3354 -1.7250
 9744SOL     OW36230   3.540   3.314   3.531  0.0877 -0.7602 -0.0018
 9744SOL    HW136231   3.528   3.384   3.461 -1.0733 -0.2254  0.7046
 9744SOL    HW236232   3.484   3.234   3.507 -0.0208 -0.7223  0.1252
 9745SOL     OW36233   3.174   3.424   0.132  0.3778 -0.0442  0.3342
 9745SOL    HW136234   3.129   3.347   0.177  1.2747 -0.5704  0.3408
 9745SOL    HW236235   3.259   3.446   0.181  0.5979  0.3422 -0.2190
 9746SOL     OW36236   2.793   6.405   7.136  0.3350 -0.3040  0.3253
 9746SOL    HW136237   2.873   6.460   7.112  0.1533 -0.8582 -1.5730
 9746SOL    HW236238   2.718   6.465   7.164  0.0472  0.4453 -1.9697
 9747SOL     OW36239   2.862   5.756   1.611 -0.3064 -0.0836  0.2219
 9747SOL    HW136240   2.938   5.704   1.651  0.8430 -0.0607 -1.8539
 9747SOL    HW236241   2.834   5.828   1.675 -0.3359 -1.7221  2.1098
 9748SOL     OW36242   3.955   0.664   7.186  0.1976 -0.0279  0.0887
 9748SOL    HW136243   4.009   0.584   7.211  0.1684  0.1714  0.7846
 9748SOL    HW236244   3.859   0.636   7.174  0.3235 -0.2452 -0.4616
 9749SOL     OW36245   2.564   2.484   3.149 -0.5040 -0.6239  0.4429
 9749SOL    HW136246   2.591   2.494   3.053  0.1076 -0.4346  0.6321
 9749SOL    HW236247   2.506   2.562   3.175 -0.9756 -0.8687  0.1230
 9750SOL     OW36248   5.843   6.988   6.072 -0.1251 -0.3417  0.3606
 9750SOL    HW136249   5.808   6.984   5.978  0.8656 -0.6690  0.0020
 9750SOL    HW236250   5.777   6.943   6.133  0.7384 -3.1045 -0.6483
 9751SOL     OW36251   4.625   2.230   5.523  0.0110 -0.2345  0.5543
 9751SOL    HW136252   4.609   2.329   5.521  0.7165 -0.0793  1.7008
 9751SOL    HW236253   4.558   2.184   5.465  0.7725  1.0523 -1.4283
 9752SOL     OW36254   5.917   5.660   3.616  0.0972  0.0791 -0.2065
 9752SOL    HW136255   5.974   5.703   3.546  0.6482  2.1739  1.4808
 9752SOL    HW236256   5.821   5.681   3.597  0.1165 -0.6772 -1.1905
 9753SOL     OW36257   7.098   4.163   6.491  0.0182 -0.6074 -0.0091
 9753SOL    HW136258   7.001   4.143   6.481  0.0060  0.8014 -3.4397
 9753SOL    HW236259   7.151   4.085   6.457  0.0979 -0.7953  0.5349
 9754SOL     OW36260   3.394   6.268   1.728  0.2374 -0.0877 -0.0173
 9754SOL    HW136261   3.484   6.279   1.686  0.8718  1.3027  1.6522
 9754SOL    HW236262   3.403   6.212   1.810 -0.4833 -0.1764  0.0053
 9755SOL     OW36263   6.763   4.451   0.566 -0.6251 -0.4662  0.8827
 9755SOL    HW136264   6.764   4.380   0.496  0.5787  2.0722 -1.8317
 9755SOL    HW236265   6.669   4.480   0.583 -0.7679  0.8180 -1.8327
 9756SOL     OW36266   4.259   3.399   5.453 -0.5533  0.2712  0.5381
 9756SOL    HW136267   4.223   3.351   5.373 -0.2850 -0.8321  1.0747
 9756SOL    HW236268   4.200   3.382   5.532 -1.0023  1.6291  0.5121
 9757SOL     OW36269   6.575   5.077   1.124 -0.8006  0.0254 -0.2518
 9757SOL    HW136270   6.531   4.988   1.115  0.1179 -0.3659 -0.9127
 9757SOL    HW236271   6.660   5.067   1.176 -1.3745  0.7390  0.8294
 9758SOL     OW36272   5.993   6.193   2.705  0.4432 -0.3486  0.3021
 9758SOL    HW136273   5.945   6.260   2.649  1.7236  0.3093 -0.0221
 9758SOL    HW236274   5.964   6.101   2.678  0.7250 -0.0291 -1.1646
 9759SOL     OW36275   2.517   5.996   5.931  0.4433  0.1632  0.8680
 9759SOL    HW136276   2.538   5.983   6.027  0.8018  0.6832  0.8586
 9759SOL    HW236277   2.596   6.033   5.883  0.4890 -0.7276  0.2336
 9760SOL     OW36278   3.846   5.269   3.537 -0.0093 -0.6538  0.4699
 9760SOL    HW136279   3.842   5.366   3.513 -0.5096 -0.9063 -0.4838
 9760SOL    HW236280   3.928   5.252   3.591  0.9293  0.0169 -0.7005
 9761SOL     OW36281   1.590   6.091   0.064 -0.1861 -0.4391 -0.5040
 9761SOL    HW136282   1.539   6.162   0.111 -1.6700 -1.2917 -0.7862
 9761SOL    HW236283   1.528   6.038   0.006  1.2428 -0.6873 -1.8638
 9762SOL     OW36284   5.181   5.314   1.866  0.1922 -0.3286  0.2255
 9762SOL    HW136285   5.279   5.299   1.855  0.1532 -0.0519 -0.5575
 9762SOL    HW236286   5.136   5.305   1.777 -0.1817  1.8151  0.1621
 9763SOL     OW36287   5.667   2.172   2.465 -0.2138  0.3558  0.4794
 9763SOL    HW136288   5.682   2.102   2.395  2.8409  1.0296  0.3984
 9763SOL    HW236289   5.583   2.222   2.444 -0.0697 -0.3493 -1.9686
 9764SOL     OW36290   3.762   0.108   3.197 -0.0046  0.1045  0.0654
 9764SOL    HW136291   3.735   0.204   3.193  0.4131  0.2321  0.3174
 9764SOL    HW236292   3.831   0.095   3.268 -1.1813 -0.6524  1.0941
 9765SOL     OW36293   4.846   4.133   5.212  0.1094 -0.1637  0.1484
 9765SOL    HW136294   4.917   4.163   5.276  0.3905 -1.7399  0.6153
 9765SOL    HW236295   4.808   4.212   5.165  0.7250  0.9133  1.4089
 9766SOL     OW36296   0.396   3.659   3.602 -1.0201 -0.7667 -0.0705
 9766SOL    HW136297   0.386   3.564   3.634 -1.7102 -1.5897 -2.5381
 9766SOL    HW236298   0.431   3.658   3.508  1.1264  1.5312  0.6764
 9767SOL     OW36299   7.029   3.257   4.278  0.4547 -0.0414  0.1984
 9767SOL    HW136300   6.982   3.219   4.357  1.6079 -0.3690  0.7347
 9767SOL    HW236301   6.997   3.211   4.195 -1.0717  0.6040  0.4112
 9768SOL     OW36302   3.069   3.086   1.726  0.3359  0.4741  0.2449
 9768SOL    HW136303   3.120   3.172   1.723 -1.2621  1.4110 -0.7407
 9768SOL    HW236304   3.013   3.077   1.643  1.7735 -2.3440 -0.4887
 9769SOL     OW36305   2.619   1.203   3.875 -0.1286  0.3421 -0.1711
 9769SOL    HW136306   2.550   1.193   3.946 -0.4090  1.4663 -0.2636
 9769SOL    HW236307   2.710   1.189   3.914 -0.3917 -0.8107  0.0208
 9770SOL     OW36308   4.086   0.906   6.241  0.1463 -0.7715  0.5306
 9770SOL    HW136309   4.011   0.849   6.273  0.1661 -1.2252 -0.2190
 9770SOL    HW236310   4.130   0.863   6.162  0.8908 -0.2807  0.6676
 9771SOL     OW36311   4.971   0.493   3.831  0.2530 -0.1214 -0.2331
 9771SOL    HW136312   4.991   0.472   3.735 -2.9851 -0.4039 -0.9132
 9771SOL    HW236313   4.958   0.591   3.841  0.0838 -0.1461 -0.2039
 9772SOL     OW36314   3.776   1.805   4.640  0.0675 -0.0500  0.3064
 9772SOL    HW136315   3.813   1.772   4.727  0.2461  0.1773  0.3163
 9772SOL    HW236316   3.753   1.727   4.582  0.7438 -0.1955  0.2227
 9773SOL     OW36317   6.433   3.978   2.192  0.0829 -0.3837 -0.3716
 9773SOL    HW136318   6.445   4.065   2.144  0.0504  0.0555  0.4217
 9773SOL    HW236319   6.408   3.907   2.126  0.4112  0.1396 -1.0629
 9774SOL     OW36320   5.374   1.833   3.275  0.0921  0.2970  0.1463
 9774SOL    HW136321   5.380   1.752   3.332  0.4047  0.1467 -0.0991
 9774SOL    HW236322   5.279   1.866   3.272 -0.3100 -0.9227 -0.9557
 9775SOL     OW36323   2.537   7.035   6.464 -0.1225  0.2782 -0.2890
 9775SOL    HW136324   2.617   6.981   6.436  0.1692 -0.0031  1.0795
 9775SOL    HW236325   2.459   7.008   6.408  0.4002 -0.4559 -0.6825
 9776SOL     OW36326   4.812   1.411   0.974 -0.3710 -0.1590 -0.1852
 9776SOL    HW136327   4.744   1.346   1.007  0.3072 -0.9062 -0.2496
 9776SOL    HW236328   4.875   1.434   1.048 -1.1731  1.1562  0.0985
 9777SOL     OW36329   5.671   1.381   1.743 -0.0944  0.4821  0.0823
 9777SOL    HW136330   5.604   1.394   1.816  0.1720  1.6757  0.1330
 9777SOL    HW236331   5.630   1.405   1.655  0.0335  0.4736  0.0200
 9778SOL     OW36332   4.711   0.751   5.828 -0.5244  0.3612  0.1959
 9778SOL    HW136333   4.721   0.654   5.804 -0.4543  0.5242 -0.4405
 9778SOL    HW236334   4.744   0.766   5.921  1.1372  0.1086 -0.3481
 9779SOL     OW36335   2.600   0.592   0.906  0.1785  0.4027  0.0204
 9779SOL    HW136336   2.547   0.574   0.824  1.2721  0.0273 -0.6233
 9779SOL    HW236337   2.620   0.505   0.952  0.1830  0.5456  0.2877
 9780SOL     OW36338   6.583   3.962   4.331 -0.6468 -0.2178  0.1792
 9780SOL    HW136339   6.528   4.020   4.271 -0.8737 -0.3280  0.2817
 9780SOL    HW236340   6.545   3.963   4.424  0.1391  0.5399  0.4966
 9781SOL     OW36341   6.455   3.330   2.744 -0.5529  0.3368 -0.0033
 9781SOL    HW136342   6.552   3.328   2.769  0.2733  1.6695 -2.9615
 9781SOL    HW236343   6.428   3.240   2.710  0.4261  0.7521 -1.9268
 9782SOL     OW36344   3.521   5.831   3.231  0.0344 -0.1889 -0.2056
 9782SOL    HW136345   3.602   5.870   3.276  0.3221  0.3425 -1.1817
 9782SOL    HW236346   3.506   5.738   3.265  0.2395  0.2068  1.0004
 9783SOL     OW36347   2.034   7.226   2.256  0.3881  0.4041 -0.2597
 9783SOL    HW136348   2.061   7.314   2.295 -1.7181 -0.3976  3.1927
 9783SOL    HW236349   2.067   7.152   2.314 -1.8038 -0.8901 -0.6098
 9784SOL     OW36350   0.997   4.478   6.048 -0.0849  0.3439 -0.0736
 9784SOL    HW136351   0.948   4.410   6.102 -1.3973  0.6855 -0.7975
 9784SOL    HW236352   0.944   4.564   6.047  1.4190  1.2845  0.6231
 9785SOL     OW36353   0.569   4.480   2.183 -0.6610  0.0228 -0.0575
 9785SOL    HW136354   0.548   4.382   2.173 -1.0067  0.1619 -0.7416
 9785SOL    HW236355   0.491   4.534   2.151 -0.6397  0.5222  0.7257
 9786SOL     OW36356   2.755   3.304   5.986  0.1498  0.0002  0.6345
 9786SOL    HW136357   2.751   3.372   5.913 -0.4668 -0.9962 -0.2671
 9786SOL    HW236358   2.792   3.218   5.950  1.3580 -0.0134  1.8732
 9787SOL     OW36359   5.876   0.104   5.411 -0.0833 -0.3022 -0.2378
 9787SOL    HW136360   5.914   0.197   5.417 -2.4939  0.6619  0.6930
 9787SOL    HW236361   5.850   0.085   5.316 -0.3601  0.3075 -0.2870
 9788SOL     OW36362   2.299   4.369   2.531  0.5650  0.4014 -0.1033
 9788SOL    HW136363   2.204   4.399   2.526  0.8604  1.5469  0.8954
 9788SOL    HW236364   2.313   4.315   2.614  0.5888 -0.5592 -0.7132
 9789SOL     OW36365   2.138   5.721   6.130  0.7452 -0.1688 -0.0451
 9789SOL    HW136366   2.219   5.746   6.184  0.9917  0.2053 -0.5946
 9789SOL    HW236367   2.156   5.635   6.082  1.7024  1.1700 -2.0964
 9790SOL     OW36368   0.191   0.650   0.411  0.3492  0.4542  0.0634
 9790SOL    HW136369   0.251   0.616   0.484  1.3731 -1.2740 -1.5445
 9790SOL    HW236370   0.190   0.750   0.413  0.3729  0.4463  2.4127
 9791SOL     OW36371   6.133   6.457   3.961 -0.1382 -0.1369  0.3091
 9791SOL    HW136372   6.192   6.525   4.004  0.9136  1.0336 -2.8682
 9791SOL    HW236373   6.174   6.367   3.970 -0.1411  0.0080  2.0464
 9792SOL     OW36374   5.692   4.795   4.480 -0.3546  0.4242 -0.1461
 9792SOL    HW136375   5.742   4.711   4.457 -0.1436  0.4567  0.2001
 9792SOL    HW236376   5.672   4.845   4.396  0.7255  0.7216 -0.2315
 9793SOL     OW36377   7.323   5.820   5.335 -0.3875 -0.6736 -0.0338
 9793SOL    HW136378   7.240   5.847   5.286 -0.2670  0.9500  0.6281
 9793SOL    HW236379   7.398   5.811   5.269 -1.1108 -2.3945 -0.6720
 9794SOL     OW36380   2.958   6.426   3.065  0.6007  0.1029  0.6241
 9794SOL    HW136381   2.990   6.493   3.132 -0.1360 -1.8790  3.0244
 9794SOL    HW236382   2.990   6.452   2.974  0.8305  3.3743  1.5638
 9795SOL     OW36383   5.554   2.530   1.096 -0.1301 -0.4796 -0.1548
 9795SOL    HW136384   5.630   2.593   1.079  0.9037 -1.7546 -0.3823
 9795SOL    HW236385   5.486   2.575   1.154  1.0869  0.4901  0.5644
 9796SOL     OW36386   7.145   3.385   6.803 -0.0572 -0.5429  0.1033
 9796SOL    HW136387   7.134   3.358   6.899  0.2475  0.8857  0.5478
 9796SOL    HW236388   7.232   3.432   6.792 -0.1399 -0.6135 -0.8662
 9797SOL     OW36389   4.060   1.273   3.921  0.2741  0.1150  0.4404
 9797SOL    HW136390   4.062   1.271   4.021 -2.2210  0.0788  0.5138
 9797SOL    HW236391   3.985   1.217   3.888  0.5224  0.8444 -1.4332
 9798SOL     OW36392   4.822   4.127   3.419  0.1331  0.4917 -0.3293
 9798SOL    HW136393   4.747   4.186   3.446  1.1157  1.3949  0.4903
 9798SOL    HW236394   4.858   4.156   3.330 -1.7123 -1.1383 -1.6286
 9799SOL     OW36395   0.445   6.154   6.488  1.0297 -0.1122 -0.0211
 9799SOL    HW136396   0.374   6.178   6.421  1.4141 -3.2768 -1.6850
 9799SOL    HW236397   0.428   6.203   6.573 -1.1849  1.7959 -1.4891
 9800SOL     OW36398   3.939   0.066   3.427  0.2623 -0.1352  0.0407
 9800SOL    HW136399   3.974   0.142   3.482 -0.7637  0.7863 -0.5665
 9800SOL    HW236400   4.009   0.037   3.361  1.1933 -0.7008  1.2333
 9801SOL     OW36401   1.547   3.458   3.194 -0.7497 -0.5019  0.9233
 9801SOL    HW136402   1.485   3.385   3.222 -0.1545 -0.9508  1.0812
 9801SOL    HW236403   1.502   3.547   3.207 -1.5878 -0.8509  0.4237
 9802SOL     OW36404   4.459   3.782   3.123  1.0613 -1.0511  0.1688
 9802SOL    HW136405   4.410   3.810   3.040  0.4655  0.3327  0.9653
 9802SOL    HW236406   4.553   3.816   3.120  0.6019  0.2907  0.7263
 9803SOL     OW36407   1.557   5.151   4.389 -0.2825  0.6341  0.0069
 9803SOL    HW136408   1.640   5.205   4.378  0.7766 -0.8680  0.4602
 9803SOL    HW236409   1.532   5.110   4.302 -0.1472  0.5297  0.0159
 9804SOL     OW36410   3.596   1.302   0.536 -0.1380  0.2904  0.0546
 9804SOL    HW136411   3.537   1.240   0.587  0.4728 -0.3545 -0.0190
 9804SOL    HW236412   3.540   1.359   0.476 -0.6050 -0.9892 -0.7435
 9805SOL     OW36413   3.507   4.982   5.461  0.0937 -0.4610  0.3218
 9805SOL    HW136414   3.528   5.037   5.542  1.1246  0.0804 -0.3028
 9805SOL    HW236415   3.593   4.954   5.417 -0.4639  0.2573 -1.2548
 9806SOL     OW36416   3.659   3.283   1.477  0.1422 -0.4758  0.7695
 9806SOL    HW136417   3.583   3.343   1.452  1.0809  0.5848  0.4519
 9806SOL    HW236418   3.630   3.188   1.469 -0.1019 -0.1690 -2.8772
 9807SOL     OW36419   6.640   4.571   3.978 -0.2372 -0.6061  0.0811
 9807SOL    HW136420   6.565   4.508   3.996 -0.5466 -0.4306 -0.5546
 9807SOL    HW236421   6.613   4.633   3.904  0.9392 -1.2278 -0.8669
 9808SOL     OW36422   0.443   7.149   0.722  0.0856  0.5289  0.9336
 9808SOL    HW136423   0.520   7.211   0.708 -0.8596  1.4226 -0.4374
 9808SOL    HW236424   0.403   7.125   0.633 -1.5707  0.5175  1.6745
 9809SOL     OW36425   2.859   4.717   1.239  0.4025  0.1895  0.1143
 9809SOL    HW136426   2.877   4.644   1.305  0.1552  1.4304  1.5993
 9809SOL    HW236427   2.766   4.707   1.203  0.4446 -0.3557  0.1580
 9810SOL     OW36428   7.119   1.906   5.984 -0.8481 -0.0976  0.8840
 9810SOL    HW136429   7.192   1.945   5.927  0.8161 -1.5953  1.9224
 9810SOL    HW236430   7.033   1.952   5.964 -0.0951  0.1006 -2.0776
 9811SOL     OW36431   4.334   1.135   1.094 -0.0142 -0.2449  0.6544
 9811SOL    HW136432   4.428   1.140   1.060  0.2685  0.8426  1.5893
 9811SOL    HW236433   4.280   1.079   1.031  1.3280 -1.1818  0.2930
 9812SOL     OW36434   5.401   2.820   5.700  0.5870  0.1613 -0.5006
 9812SOL    HW136435   5.349   2.903   5.721  0.9903  0.7052 -1.5618
 9812SOL    HW236436   5.369   2.745   5.757 -2.1385  0.1954 -1.8706
 9813SOL     OW36437   0.768   2.429   5.505  0.0700  0.3221 -0.0009
 9813SOL    HW136438   0.716   2.377   5.573  0.5454  0.1449  0.2247
 9813SOL    HW236439   0.855   2.382   5.486  1.0618  1.6990  1.1195
 9814SOL     OW36440   7.298   6.686   5.225  0.0078  0.1428  0.0377
 9814SOL    HW136441   7.236   6.732   5.289  0.0103 -0.7104  0.6581
 9814SOL    HW236442   7.320   6.749   5.150 -1.3844  0.5550 -0.0535
 9815SOL     OW36443   2.725   4.461   3.924  0.1873 -0.3962 -0.0732
 9815SOL    HW136444   2.744   4.525   3.849 -1.2790 -0.0298 -0.1557
 9815SOL    HW236445   2.708   4.370   3.886 -0.2402 -0.2788 -0.1731
 9816SOL     OW36446   5.401   4.606   1.096  0.1489  0.2855  0.1634
 9816SOL    HW136447   5.493   4.568   1.091  0.4835  0.9031  1.3778
 9816SOL    HW236448   5.378   4.625   1.192 -1.4100 -0.2854 -0.0887
 9817SOL     OW36449   5.650   1.946   6.196 -0.1141  0.0006  0.0238
 9817SOL    HW136450   5.641   1.969   6.293 -1.1014 -1.3286  0.2536
 9817SOL    HW236451   5.741   1.911   6.178  0.5113  1.4775  0.1983
 9818SOL     OW36452   3.224   4.317   5.946 -0.5469  0.3272  0.2822
 9818SOL    HW136453   3.251   4.278   5.858  1.2732 -0.6270  1.2495
 9818SOL    HW236454   3.241   4.251   6.019  0.7425  2.1973  1.7087
 9819SOL     OW36455   4.967   0.771   7.250 -0.1606  0.6169 -0.0302
 9819SOL    HW136456   5.002   0.748   7.340  0.2860  0.7872 -0.1562
 9819SOL    HW236457   4.949   0.688   7.198  1.9910  0.5178 -0.6958
 9820SOL     OW36458   7.302   5.604   6.595  0.3012  1.4007 -0.4833
 9820SOL    HW136459   7.330   5.552   6.514  1.4876  3.0211 -1.1249
 9820SOL    HW236460   7.375   5.666   6.622  0.6714 -0.4018  2.9533
 9821SOL     OW36461   2.321   2.289   5.897  0.0401 -0.6728 -0.6052
 9821SOL    HW136462   2.274   2.201   5.895 -3.9057  1.2462  1.3029
 9821SOL    HW236463   2.351   2.307   5.991 -1.9662  1.2965 -0.2876
 9822SOL     OW36464   0.239   0.831   1.452 -0.4777  0.7483 -0.5434
 9822SOL    HW136465   0.213   0.839   1.548  0.4573  0.2743 -0.2412
 9822SOL    HW236466   0.178   0.886   1.396 -0.3598  1.8852  0.4401
 9823SOL     OW36467   0.092   0.104   1.186  0.3502 -0.0694 -0.1348
 9823SOL    HW136468   0.185   0.081   1.215  0.0054 -1.0340  0.2278
 9823SOL    HW236469   0.095   0.166   1.108  1.2974  0.9125  0.6730
 9824SOL     OW36470   3.579   1.626   4.229 -0.4789  0.5124  0.4847
 9824SOL    HW136471   3.624   1.706   4.188  2.4410  0.1081  2.6870
 9824SOL    HW236472   3.584   1.549   4.165  0.6608  0.9030  0.0814
 9825SOL     OW36473   1.299   6.152   0.218  0.1781 -0.1423 -0.9557
 9825SOL    HW136474   1.363   6.221   0.253  0.4288  0.1007 -1.8772
 9825SOL    HW236475   1.316   6.065   0.263  0.1158  0.3033 -0.0533
 9826SOL     OW36476   1.171   4.240   1.773 -0.0723 -0.3057 -0.1932
 9826SOL    HW136477   1.167   4.143   1.750 -0.4722 -0.8996  2.2557
 9826SOL    HW236478   1.093   4.287   1.732  0.8150 -0.7468 -2.4688
 9827SOL     OW36479   1.301   1.712   1.960  0.4014 -0.2561 -0.2214
 9827SOL    HW136480   1.322   1.810   1.957 -1.3297  0.0946 -1.4726
 9827SOL    HW236481   1.283   1.685   2.054  0.3043  0.7518  0.0565
 9828SOL     OW36482   5.660   0.742   2.643  0.1736 -0.1025 -0.3742
 9828SOL    HW136483   5.668   0.792   2.556 -2.0538  0.5027 -0.2578
 9828SOL    HW236484   5.743   0.757   2.697  0.2234  2.1604 -1.0242
 9829SOL     OW36485   4.178   3.605   2.245  0.6861  0.2668  0.0614
 9829SOL    HW136486   4.090   3.581   2.202 -0.8161  1.4251  2.3605
 9829SOL    HW236487   4.247   3.537   2.221 -1.3037 -1.6567 -0.3670
 9830SOL     OW36488   2.707   2.069   6.513  0.1997  0.1631 -0.1927
 9830SOL    HW136489   2.704   2.145   6.448 -2.5008 -1.0971 -1.6094
 9830SOL    HW236490   2.702   1.983   6.464 -0.0214 -0.8723  1.5954
 9831SOL     OW36491   5.551   3.650   1.666  0.1542 -0.3655  0.0583
 9831SOL    HW136492   5.477   3.684   1.724  0.3265 -2.4073  1.5251
 9831SOL    HW236493   5.514   3.622   1.578 -0.7401 -0.8608  0.5893
 9832SOL     OW36494   6.401   0.985   1.499  0.0135  0.1143  0.3998
 9832SOL    HW136495   6.496   1.016   1.503 -0.2332  0.7077  2.4797
 9832SOL    HW236496   6.353   1.015   1.582 -2.6174  1.7962 -1.6638
 9833SOL     OW36497   2.966   2.874   6.945 -0.0723  0.1107  0.9822
 9833SOL    HW136498   2.962   2.821   6.860  1.1401 -0.1070  1.0531
 9833SOL    HW236499   2.924   2.964   6.930  1.2743  0.5644 -0.2275
 9834SOL     OW36500   3.682   2.435   6.977  0.4294  0.0059  0.0451
 9834SOL    HW136501   3.673   2.414   6.880  1.1166  0.8082 -0.1988
 9834SOL    HW236502   3.779   2.441   7.001  0.2817 -1.6591  1.1059
 9835SOL     OW36503   6.503   0.803   5.709  0.5357 -0.0694 -0.0940
 9835SOL    HW136504   6.439   0.755   5.648  0.4659  1.0054 -0.8891
 9835SOL    HW236505   6.569   0.738   5.746 -1.3861 -1.3196  1.2319
 9836SOL     OW36506   5.846   0.772   6.258 -0.1522  0.0088  0.4121
 9836SOL    HW136507   5.785   0.698   6.287  1.1414 -0.9550  0.7482
 9836SOL    HW236508   5.935   0.760   6.302  0.0132  1.8821  0.5955
 9837SOL     OW36509   3.914   3.857   6.741 -0.8635 -0.0012  1.0440
 9837SOL    HW136510   3.856   3.895   6.812 -2.1686 -1.3375  0.7006
 9837SOL    HW236511   3.893   3.901   6.653 -1.0621 -0.1976  0.9939
 9838SOL     OW36512   5.617   0.694   2.266  0.0603  0.0246  0.1955
 9838SOL    HW136513   5.623   0.779   2.319  0.2724 -0.6849  1.3121
 9838SOL    HW236514   5.580   0.621   2.323  1.2911 -1.0148 -0.3012
 9839SOL     OW36515   5.585   7.005   6.655  0.3960  1.1429  0.4474
 9839SOL    HW136516   5.667   6.958   6.689  0.0235  0.6696  0.7164
 9839SOL    HW236517   5.516   6.936   6.631  0.6078  1.4878 -1.1481
 9840SOL     OW36518   1.988   3.932   7.205  0.0609  0.2787  1.1735
 9840SOL    HW136519   1.970   3.881   7.121  0.6197 -0.3622  1.4392
 9840SOL    HW236520   1.919   3.907   7.274  0.0378  0.2614  1.1436
 9841SOL     OW36521   3.673   0.641   7.181  0.1304 -0.9293  0.3420
 9841SOL    HW136522   3.607   0.715   7.197 -0.4084 -1.0738 -1.1844
 9841SOL    HW236523   3.667   0.575   7.256 -1.3210 -0.8436  0.3172
 9842SOL     OW36524   2.899   2.315   0.101  0.1033 -0.1178  0.0191
 9842SOL    HW136525   2.974   2.251   0.081  2.6109  2.8221 -0.4257
 9842SOL    HW236526   2.876   2.366   0.018 -0.1527  1.2645  0.9259
 9843SOL     OW36527   6.193   5.606   0.716 -0.0216  0.0867 -0.1833
 9843SOL    HW136528   6.101   5.639   0.698 -0.6677 -1.0010  1.0711
 9843SOL    HW236529   6.247   5.612   0.632 -1.9266 -1.4934 -1.5617
 9844SOL     OW36530   2.197   7.200   0.976  0.0126  0.1144 -0.1540
 9844SOL    HW136531   2.106   7.162   0.989  0.1457 -0.2759 -0.3629
 9844SOL    HW236532   2.212   7.275   1.041 -0.0176 -0.6040  0.6947
 9845SOL     OW36533   3.206   6.482   1.760 -0.0944 -0.0333 -0.4902
 9845SOL    HW136534   3.209   6.530   1.673 -2.1307  0.8631 -0.1130
 9845SOL    HW236535   3.284   6.420   1.768  0.9352  1.0164 -2.2678
 9846SOL     OW36536   2.751   3.941   1.629  0.1300 -0.2797  0.1659
 9846SOL    HW136537   2.811   4.018   1.605 -1.3487  1.2452  1.2353
 9846SOL    HW236538   2.678   3.973   1.690 -0.9336 -2.3967  0.0584
 9847SOL     OW36539   5.135   1.816   7.062 -0.1531  0.7255 -0.0757
 9847SOL    HW136540   5.206   1.775   7.005  0.3865  1.7117 -0.1196
 9847SOL    HW236541   5.068   1.864   7.005 -0.6237  0.1635 -0.0046
 9848SOL     OW36542   1.826   1.623   1.456 -0.5221 -0.3072  0.1193
 9848SOL    HW136543   1.870   1.713   1.459 -2.1780  0.5197 -0.0081
 9848SOL    HW236544   1.788   1.603   1.546 -1.3075 -0.2842 -0.2037
 9849SOL     OW36545   2.843   6.525   4.039  0.0275 -0.1767  0.3131
 9849SOL    HW136546   2.775   6.553   4.106  0.3508 -0.3409  0.7099
 9849SOL    HW236547   2.807   6.449   3.984 -0.8092  0.9309 -0.6971
 9850SOL     OW36548   0.442   4.792   4.503 -0.1469  0.0853 -0.5084
 9850SOL    HW136549   0.531   4.817   4.464  0.3634  0.5834  0.9495
 9850SOL    HW236550   0.405   4.870   4.552 -1.3833 -0.1418 -1.0660
 9851SOL     OW36551   3.276   2.440   6.208 -0.1885 -0.2271 -0.2043
 9851SOL    HW136552   3.318   2.453   6.119 -1.0293 -0.1768 -0.5945
 9851SOL    HW236553   3.209   2.367   6.203 -1.3150  0.7813  0.0259
 9852SOL     OW36554   2.382   3.304   0.681 -0.4628  0.3677  0.3749
 9852SOL    HW136555   2.440   3.275   0.606  1.5596  1.1157  1.6227
 9852SOL    HW236556   2.368   3.228   0.744  0.4887  0.6080  0.8906
 9853SOL     OW36557   1.478   6.527   5.590 -0.0438  0.2163 -0.0900
 9853SOL    HW136558   1.551   6.496   5.529  0.1359 -0.3082  0.3946
 9853SOL    HW236559   1.430   6.448   5.627 -0.0347  0.5345  0.5941
 9854SOL     OW36560   0.135   6.778   4.816  0.3813 -0.2175 -0.0788
 9854SOL    HW136561   0.215   6.753   4.870  1.1483  0.4663 -0.8803
 9854SOL    HW236562   0.164   6.816   4.728 -0.7699  1.6574  0.2992
 9855SOL     OW36563   6.734   6.992   1.561  0.1058  0.0864 -0.1708
 9855SOL    HW136564   6.761   7.089   1.554  0.0925  0.1104  0.1173
 9855SOL    HW236565   6.740   6.963   1.656  1.3756 -0.5583 -0.4307
 9856SOL     OW36566   6.787   2.443   0.197 -0.0513  0.2638  0.1925
 9856SOL    HW136567   6.813   2.464   0.103  0.0781 -1.0571 -0.0708
 9856SOL    HW236568   6.687   2.441   0.205 -0.0596 -0.0621 -0.0113
 9857SOL     OW36569   3.005   1.457   6.349 -0.2165 -0.1506  0.2706
 9857SOL    HW136570   2.906   1.470   6.342 -0.2563 -1.1285 -1.2357
 9857SOL    HW236571   3.046   1.461   6.258  1.1015 -0.0041  0.8601
 9858SOL     OW36572   1.738   0.406   0.798 -0.2333 -0.4688 -0.0678
 9858SOL    HW136573   1.638   0.404   0.796 -0.2697 -1.0788  1.4627
 9858SOL    HW236574   1.769   0.488   0.847  0.0203 -0.3675 -0.3908
 9859SOL     OW36575   4.385   5.289   3.143  0.0962  0.2951  0.1213
 9859SOL    HW136576   4.289   5.306   3.164 -0.0988 -0.8076  0.1727
 9859SOL    HW236577   4.404   5.312   3.048 -0.2838  0.2438  0.0336
 9860SOL     OW36578   2.355   6.542   1.038  0.4836  0.0525 -0.0707
 9860SOL    HW136579   2.364   6.593   1.123  1.4013  0.0092 -0.1365
 9860SOL    HW236580   2.419   6.578   0.970 -0.8097  0.6344 -1.0241
 9861SOL     OW36581   7.257   4.181   4.456  0.9104  0.4264  0.4709
 9861SOL    HW136582   7.202   4.223   4.384  1.6674  1.2484  0.3650
 9861SOL    HW236583   7.315   4.110   4.417 -1.0926 -1.4447  0.8035
 9862SOL     OW36584   5.112   6.794   1.721  0.4930  0.0048 -0.2697
 9862SOL    HW136585   5.082   6.889   1.711  2.3319  0.4709 -1.6337
 9862SOL    HW236586   5.112   6.770   1.818  1.3878  1.8848  0.2290
 9863SOL     OW36587   2.995   2.861   0.206  0.0393 -0.0030 -0.3954
 9863SOL    HW136588   3.040   2.902   0.285 -0.8554  0.1634  0.0352
 9863SOL    HW236589   3.035   2.897   0.122  1.4216 -0.6496 -0.0237
 9864SOL     OW36590   2.177   4.182   5.404  0.3203  0.0613 -0.1937
 9864SOL    HW136591   2.224   4.111   5.456 -1.5654 -2.4033 -1.7497
 9864SOL    HW236592   2.136   4.249   5.468 -0.9506 -2.2373  1.4867
 9865SOL     OW36593   1.857   5.126   3.733 -0.0382 -0.1485 -0.1642
 9865SOL    HW136594   1.781   5.075   3.773 -0.2424 -0.4686 -0.9572
 9865SOL    HW236595   1.935   5.125   3.796 -0.8566  0.6087  0.8789
 9866SOL     OW36596   1.330   3.560   0.556 -0.2583 -0.0565  0.6950
 9866SOL    HW136597   1.291   3.554   0.464  2.1425 -0.5345 -0.3450
 9866SOL    HW236598   1.386   3.643   0.562  0.5210 -0.6253  1.3466
 9867SOL     OW36599   4.983   0.521   5.914  0.2276 -0.1415 -0.8286
 9867SOL    HW136600   5.049   0.595   5.905 -0.2917  0.5472  0.8930
 9867SOL    HW236601   5.023   0.446   5.967  0.5828 -0.9055 -2.1533
 9868SOL     OW36602   4.320   4.994   6.901  0.3164 -0.0251 -0.4635
 9868SOL    HW136603   4.257   5.038   6.838 -1.9580  0.4595  2.0517
 9868SOL    HW236604   4.380   5.062   6.943  0.7241 -0.1328 -0.8621
 9869SOL     OW36605   5.143   5.870   6.280  0.2491  0.0822 -0.0605
 9869SOL    HW136606   5.155   5.860   6.378  0.2989  2.1119  0.1440
 9869SOL    HW236607   5.224   5.833   6.233  0.1640 -1.0202  0.6249
 9870SOL     OW36608   1.161   2.910   3.216 -0.1125 -0.0116  0.3997
 9870SOL    HW136609   1.226   2.940   3.146  0.9329 -0.0757  1.3368
 9870SOL    HW236610   1.142   2.986   3.279  0.7973 -0.6360  1.4432
 9871SOL     OW36611   0.071   4.561   4.759 -0.3267 -0.2445 -0.7052
 9871SOL    HW136612   0.041   4.468   4.739 -1.4506 -0.1837  0.6298
 9871SOL    HW236613   0.160   4.577   4.717 -0.1204 -1.9306 -0.9381
 9872SOL     OW36614   3.943   2.299   0.812 -0.0076 -0.4684  0.3905
 9872SOL    HW136615   4.026   2.294   0.755  0.3895 -0.1436  0.9375
 9872SOL    HW236616   3.897   2.210   0.810  0.8830 -0.9585  0.8620
 9873SOL     OW36617   2.364   0.000   2.208 -0.1626 -0.3554  0.0683
 9873SOL    HW136618   2.288   0.037   2.262  0.0748  1.0495 -0.5427
 9873SOL    HW236619   2.335  -0.083   2.162 -0.8925 -0.6144  0.9730
 9874SOL     OW36620   1.890   0.536   6.553 -0.2299 -0.0254  0.2493
 9874SOL    HW136621   1.897   0.477   6.633 -0.1790 -1.5038 -0.8234
 9874SOL    HW236622   1.827   0.612   6.572  0.7312  0.3412  2.0858
 9875SOL     OW36623   5.602   5.192   4.419  0.6163 -0.2501  0.1196
 9875SOL    HW136624   5.553   5.255   4.358 -0.2703 -0.6626  0.4069
 9875SOL    HW236625   5.544   5.113   4.440  1.0649 -0.3131  1.1633
 9876SOL     OW36626   6.549   1.903   1.425 -0.3022  0.7535  0.5007
 9876SOL    HW136627   6.496   1.956   1.359 -0.8239  0.7799  0.9365
 9876SOL    HW236628   6.641   1.941   1.433 -0.4808  1.2182  0.3537
 9877SOL     OW36629   5.862   0.380   6.989 -0.3324  0.1110  0.1604
 9877SOL    HW136630   5.961   0.390   6.975 -0.4579  1.7407  0.4037
 9877SOL    HW236631   5.813   0.411   6.908 -0.7321  1.7043  0.9937
 9878SOL     OW36632   5.643   7.004   7.230 -0.1502 -0.0383 -0.8105
 9878SOL    HW136633   5.642   6.915   7.186  1.5860  0.4089 -1.7898
 9878SOL    HW236634   5.737   7.034   7.244 -0.7058  1.5288 -0.2797
 9879SOL     OW36635   4.067   2.291   4.712  0.0504 -0.2353 -0.6696
 9879SOL    HW136636   4.076   2.219   4.781  0.4993 -1.1786 -1.6863
 9879SOL    HW236637   4.009   2.259   4.638 -0.9547  1.0139 -0.4353
 9880SOL     OW36638   0.756   4.842   4.466 -0.4283  0.3370  0.0132
 9880SOL    HW136639   0.749   4.861   4.564 -1.7498  0.4907 -0.1138
 9880SOL    HW236640   0.800   4.919   4.420 -0.2980  0.4948  0.4022
 9881SOL     OW36641   2.727   0.142   6.444 -0.2900 -0.0434 -0.1602
 9881SOL    HW136642   2.643   0.195   6.446 -0.0034  0.3850  1.6577
 9881SOL    HW236643   2.778   0.158   6.529  1.1173 -1.0976 -0.7913
 9882SOL     OW36644   0.888   4.285   1.712 -0.0327 -0.3363 -0.4612
 9882SOL    HW136645   0.845   4.304   1.623 -0.3141  0.5557 -0.1447
 9882SOL    HW236646   0.846   4.205   1.753 -1.9256  0.9629  0.1822
 9883SOL     OW36647   1.840   2.790   0.366  0.0375  0.3762 -0.1000
 9883SOL    HW136648   1.743   2.809   0.354 -0.3304 -0.9299  0.7148
 9883SOL    HW236649   1.858   2.694   0.343  1.3297  0.8780 -1.2946
 9884SOL     OW36650   0.650   5.853   5.547  0.1142 -0.0407  0.0587
 9884SOL    HW136651   0.585   5.882   5.477 -1.5719 -0.9269  1.2454
 9884SOL    HW236652   0.678   5.932   5.602 -0.7247  0.1730  0.1750
 9885SOL     OW36653   3.968   3.762   1.553 -0.0139  0.0641 -0.0591
 9885SOL    HW136654   4.042   3.823   1.525 -2.3228  3.1812  0.4188
 9885SOL    HW236655   3.931   3.791   1.641 -3.5331  0.2337 -1.4842
 9886SOL     OW36656   2.488   1.317   3.260  0.1593 -0.3678 -0.4322
 9886SOL    HW136657   2.449   1.294   3.349 -0.4608 -1.3646 -0.9563
 9886SOL    HW236658   2.534   1.236   3.222  2.2001  0.6132 -0.1011
 9887SOL     OW36659   1.243   6.477   6.480  0.5856 -0.1595  0.4497
 9887SOL    HW136660   1.235   6.452   6.576 -0.9709  0.1967  0.4286
 9887SOL    HW236661   1.302   6.412   6.433 -1.7628 -2.6441  0.8055
 9888SOL     OW36662   4.611   3.710   6.578  0.1588 -0.2429  0.0315
 9888SOL    HW136663   4.636   3.694   6.674 -0.2841 -0.2770  0.1407
 9888SOL    HW236664   4.554   3.634   6.546 -0.4985  0.2527  0.0294
 9889SOL     OW36665   5.472   4.311   2.338 -0.0353 -0.2655 -0.1457
 9889SOL    HW136666   5.449   4.385   2.275 -0.5033 -1.6463 -1.6432
 9889SOL    HW236667   5.570   4.292   2.334  0.2830  1.0458  1.1254
 9890SOL     OW36668   2.740   5.705   0.738 -0.0419 -0.0707  0.0904
 9890SOL    HW136669   2.783   5.634   0.681  1.8852 -0.9406  2.5240
 9890SOL    HW236670   2.775   5.795   0.711 -0.2112 -0.3226 -1.0119
 9891SOL     OW36671   5.317   4.268   3.141  0.1744 -0.2854  0.6341
 9891SOL    HW136672   5.228   4.227   3.122  0.0469 -0.2261  1.1041
 9891SOL    HW236673   5.389   4.205   3.111 -0.0089  0.4810 -1.5570
 9892SOL     OW36674   0.408   1.899   6.925  0.0504 -0.1073  0.1794
 9892SOL    HW136675   0.433   1.890   6.829 -2.2917  2.2606 -0.7180
 9892SOL    HW236676   0.420   1.994   6.954  0.5644 -0.7601  2.1954
 9893SOL     OW36677   2.723   2.815   3.883  0.0736  0.0556 -0.2046
 9893SOL    HW136678   2.813   2.859   3.892  1.3047 -2.0214 -1.8202
 9893SOL    HW236679   2.668   2.834   3.965  1.2990  2.8333  0.0354
 9894SOL     OW36680   2.513   1.707   1.171 -0.3565 -0.4760  0.1998
 9894SOL    HW136681   2.495   1.624   1.223 -1.6356  0.4430  1.2441
 9894SOL    HW236682   2.432   1.731   1.117 -0.3906  0.6840  0.7470
 9895SOL     OW36683   4.406   0.085   0.146  0.1413 -0.1150 -0.0940
 9895SOL    HW136684   4.374  -0.006   0.119  0.5671 -0.7459  1.4399
 9895SOL    HW236685   4.327   0.142   0.170 -0.0943 -0.2496 -0.5448
 9896SOL     OW36686   5.589   6.140   5.690  0.4248  0.0525  0.3065
 9896SOL    HW136687   5.591   6.074   5.615 -0.5473  0.4362 -0.0597
 9896SOL    HW236688   5.539   6.222   5.661 -1.3020 -0.4150  1.8790
 9897SOL     OW36689   4.086   0.518   5.870 -0.3588 -0.6857  0.3073
 9897SOL    HW136690   4.131   0.604   5.848 -0.7309 -0.6810 -0.4424
 9897SOL    HW236691   4.047   0.478   5.787 -1.0747 -1.0708  0.8188
 9898SOL     OW36692   3.442   7.228   4.039 -0.3180  0.0208 -0.6881
 9898SOL    HW136693   3.413   7.206   3.946 -1.3610 -0.0661 -0.3528
 9898SOL    HW236694   3.476   7.145   4.083  1.7075  0.3881 -1.5200
 9899SOL     OW36695   3.340   5.236   7.328  0.3357  0.3299  0.7766
 9899SOL    HW136696   3.326   5.330   7.360  2.4410 -0.2996  3.7164
 9899SOL    HW236697   3.386   5.183   7.399 -1.6133 -3.2039 -0.5116
 9900SOL     OW36698   4.340   5.059   2.900 -0.2374 -0.1218 -0.2357
 9900SOL    HW136699   4.307   5.008   2.820  0.5629  0.5662 -1.0199
 9900SOL    HW236700   4.300   5.151   2.899 -1.1679 -0.5118  0.8184
 9901SOL     OW36701   6.697   2.874   3.866  0.2261  0.1236  0.2123
 9901SOL    HW136702   6.629   2.932   3.911 -0.6385 -1.2232  0.6571
 9901SOL    HW236703   6.747   2.822   3.935  2.0469  1.4568 -0.0795
 9902SOL     OW36704   2.526   0.906   3.637  0.0461 -0.3145  0.2988
 9902SOL    HW136705   2.481   0.948   3.715  0.9403 -2.5418  2.0585
 9902SOL    HW236706   2.521   0.806   3.644  2.2034 -0.5905 -1.2376
 9903SOL     OW36707   0.340   6.345   5.833  0.2834 -0.2973 -0.1069
 9903SOL    HW136708   0.241   6.350   5.839  0.2263 -0.5660 -0.7387
 9903SOL    HW236709   0.379   6.437   5.840 -0.0208 -0.1769 -0.0099
 9904SOL     OW36710   2.135   1.214   6.103  0.4610 -0.1856 -0.2399
 9904SOL    HW136711   2.087   1.195   6.017  0.9864 -2.7095 -0.0344
 9904SOL    HW236712   2.130   1.133   6.162  1.8943  0.7879  1.2586
 9905SOL     OW36713   7.175   1.636   3.756 -0.0219 -0.0934 -0.0713
 9905SOL    HW136714   7.229   1.717   3.735 -1.3511  0.8629  0.1755
 9905SOL    HW236715   7.233   1.569   3.803  1.0306  0.7951 -0.0847
 9906SOL     OW36716   6.313   1.615   6.349 -0.2957  0.4139 -0.3978
 9906SOL    HW136717   6.367   1.587   6.427 -1.2780 -1.5089 -0.3785
 9906SOL    HW236718   6.343   1.566   6.267 -1.3672  0.0325 -0.5763
 9907SOL     OW36719   0.421   4.142   0.395  0.3883 -0.1976 -0.1803
 9907SOL    HW136720   0.424   4.236   0.428  0.1562 -0.1732 -0.2315
 9907SOL    HW236721   0.326   4.114   0.382  0.4351 -0.6122  0.3431
 9908SOL     OW36722   0.274   4.183   1.892 -0.1534 -0.4807 -0.3929
 9908SOL    HW136723   0.357   4.189   1.835  0.5515  0.3641  0.6964
 9908SOL    HW236724   0.235   4.091   1.884  0.1874 -0.5112 -1.8857
 9909SOL     OW36725   5.781   2.090   6.857 -0.2571 -0.3353 -0.4286
 9909SOL    HW136726   5.857   2.152   6.837  0.6190 -0.7106  1.6459
 9909SOL    HW236727   5.783   2.013   6.794  0.2813  0.3326 -1.2348
 9910SOL     OW36728   3.857   7.084   6.774  0.3252 -0.5038  0.0503
 9910SOL    HW136729   3.848   7.178   6.740 -0.5402 -0.8401 -0.6791
 9910SOL    HW236730   3.934   7.039   6.728  0.8321 -0.0993  0.5096
 9911SOL     OW36731   0.850   4.703   6.091 -0.3715 -0.2001  0.3374
 9911SOL    HW136732   0.877   4.795   6.064  0.9278 -0.8719 -0.7472
 9911SOL    HW236733   0.750   4.695   6.089 -0.4690  1.0832  0.1192
 9912SOL     OW36734   3.668   6.046   0.457  0.1935  0.4093  0.0036
 9912SOL    HW136735   3.660   5.950   0.430  0.7711  0.9200 -2.0614
 9912SOL    HW236736   3.765   6.074   0.453 -0.1248  1.4458 -0.7404
 9913SOL     OW36737   1.897   2.832   3.171 -0.2249  0.5967 -0.0597
 9913SOL    HW136738   1.982   2.837   3.223 -1.0174 -0.9041  1.4034
 9913SOL    HW236739   1.916   2.794   3.080  0.6420  0.1543  0.3054
 9914SOL     OW36740   0.660   3.722   3.620  0.1730  0.2204 -0.1523
 9914SOL    HW136741   0.680   3.753   3.527 -1.1549  2.5743  0.3178
 9914SOL    HW236742   0.567   3.686   3.624  0.2120  0.1620  0.2910
 9915SOL     OW36743   5.047   5.614   4.142  0.0690 -0.6164 -0.1081
 9915SOL    HW136744   5.038   5.557   4.224 -1.1308  1.9162  1.5796
 9915SOL    HW236745   5.114   5.686   4.160 -1.6177  1.1163 -0.6512
 9916SOL     OW36746   2.393   3.518   1.517  0.0252  0.6472 -0.1229
 9916SOL    HW136747   2.489   3.513   1.544  0.0878  1.5322 -0.1689
 9916SOL    HW236748   2.335   3.508   1.598  0.1792  1.2622  0.0681
 9917SOL     OW36749   0.490   5.589   4.254 -0.2390  0.1196 -0.2436
 9917SOL    HW136750   0.515   5.540   4.170 -1.7760 -0.2248 -0.5260
 9917SOL    HW236751   0.533   5.679   4.255  0.2772 -0.1151 -1.1214
 9918SOL     OW36752   6.735   1.264   1.964  0.2939  0.2095 -0.4606
 9918SOL    HW136753   6.665   1.297   1.901 -0.1763 -0.1890 -0.1471
 9918SOL    HW236754   6.694   1.204   2.032  0.3263  2.7150  1.8713
 9919SOL     OW36755   0.374   5.479   7.197 -0.3491  0.1720  0.0286
 9919SOL    HW136756   0.285   5.455   7.234 -0.9856  0.4450 -1.2650
 9919SOL    HW236757   0.362   5.514   7.104  1.0900  0.3907 -0.0831
 9920SOL     OW36758   7.183   2.901   3.987 -0.6921 -0.2474 -0.1551
 9920SOL    HW136759   7.221   2.957   4.060 -0.7039 -1.0255  0.4605
 9920SOL    HW236760   7.211   2.938   3.898 -0.0779  0.2839  0.2518
 9921SOL     OW36761   3.993   6.470   3.575  0.2144 -0.5147 -0.0040
 9921SOL    HW136762   3.984   6.448   3.478 -2.9026 -0.3568  0.1930
 9921SOL    HW236763   3.993   6.569   3.587 -0.3958 -0.5366  0.2159
 9922SOL     OW36764   6.813   2.938   6.200  0.1115 -0.2310  0.2231
 9922SOL    HW136765   6.873   2.871   6.155  1.0640  1.4669 -1.1189
 9922SOL    HW236766   6.734   2.955   6.142 -0.5187 -0.7594  0.9259
 9923SOL     OW36767   4.837   6.691   2.474  0.3454 -0.2740 -0.1599
 9923SOL    HW136768   4.902   6.722   2.544 -0.7085  0.6219  0.4431
 9923SOL    HW236769   4.804   6.600   2.497 -0.6932  0.3842  1.0376
 9924SOL     OW36770   3.416   5.023   3.565 -0.2560  0.1050  0.4104
 9924SOL    HW136771   3.377   5.095   3.507 -1.2173  0.2354  1.2036
 9924SOL    HW236772   3.501   4.990   3.524 -1.2226 -0.2556 -1.4232
 9925SOL     OW36773   5.777   5.521   3.981 -0.2075 -0.0172  0.6884
 9925SOL    HW136774   5.818   5.501   4.071  0.1334  0.8816  0.7402
 9925SOL    HW236775   5.771   5.437   3.928 -0.0976 -0.4993  1.4333
 9926SOL     OW36776   2.194   3.896   4.679 -0.0343 -1.1129 -0.6781
 9926SOL    HW136777   2.270   3.943   4.634  0.5928 -1.8173 -0.3637
 9926SOL    HW236778   2.115   3.957   4.683  0.1741 -0.7358 -1.9625
 9927SOL     OW36779   4.280   3.697   0.681  0.0915  0.1673 -0.5085
 9927SOL    HW136780   4.360   3.756   0.670  0.5798 -0.2996  0.4569
 9927SOL    HW236781   4.231   3.723   0.764  1.3213 -1.9138  0.9198
 9928SOL     OW36782   5.356   3.142   5.450 -0.3722  0.2173 -0.0006
 9928SOL    HW136783   5.335   3.218   5.388 -2.2379 -0.5517 -0.3561
 9928SOL    HW236784   5.276   3.124   5.508 -0.6639 -2.7553 -1.2710
 9929SOL     OW36785   4.471   0.943   6.246 -0.4194 -0.1443  0.1310
 9929SOL    HW136786   4.408   0.959   6.321 -0.5115 -0.8872  0.2131
 9929SOL    HW236787   4.426   0.887   6.176  0.6133 -1.8736  0.8386
 9930SOL     OW36788   6.166   6.165   4.748  0.3495 -0.0428  0.0203
 9930SOL    HW136789   6.188   6.181   4.844  0.3468 -0.3127  0.0665
 9930SOL    HW236790   6.080   6.210   4.726  0.9576  1.0417 -0.1686
 9931SOL     OW36791   1.533   1.351   1.809 -0.5204  0.0807 -0.0927
 9931SOL    HW136792   1.514   1.350   1.908 -0.7520 -0.9507 -0.1338
 9931SOL    HW236793   1.452   1.319   1.760 -0.7326  1.5151 -0.6892
 9932SOL     OW36794   0.527   3.647   3.343 -0.5519 -0.0574  0.1333
 9932SOL    HW136795   0.527   3.577   3.271  1.3945  1.0827 -1.0121
 9932SOL    HW236796   0.494   3.733   3.306 -1.0813  0.1474  1.0495
 9933SOL     OW36797   3.292   5.766   6.514  0.1149 -0.3696  0.0531
 9933SOL    HW136798   3.273   5.794   6.608  0.0813  0.7523 -0.2835
 9933SOL    HW236799   3.376   5.809   6.482  0.6123 -1.4584 -0.1323
 9934SOL     OW36800   4.782   4.201   1.040 -0.4632  0.7976 -0.0500
 9934SOL    HW136801   4.828   4.289   1.033  0.4402  0.2591 -1.1650
 9934SOL    HW236802   4.815   4.152   1.121 -1.3517  1.6863  0.8614
 9935SOL     OW36803   7.315   3.226   0.131 -0.8312  0.4487 -0.6632
 9935SOL    HW136804   7.350   3.299   0.071 -0.5269  0.3864 -0.5604
 9935SOL    HW236805   7.233   3.187   0.090 -0.1208 -0.2012 -1.4950
 9936SOL     OW36806   4.500   2.772   4.856  0.0895  0.3089  0.9283
 9936SOL    HW136807   4.475   2.685   4.813  0.3621  0.0860  1.2238
 9936SOL    HW236808   4.492   2.845   4.788  0.9537 -0.1069  0.3681
 9937SOL     OW36809   3.703   6.543   6.474  0.4991 -0.1795  0.2369
 9937SOL    HW136810   3.640   6.561   6.398  1.0564  2.4639  0.3449
 9937SOL    HW236811   3.652   6.510   6.553 -0.4175 -0.4889 -0.4762
 9938SOL     OW36812   1.972   3.395   3.920 -0.0184  0.3953 -0.2058
 9938SOL    HW136813   1.905   3.467   3.939  0.9044  1.1177  0.3511
 9938SOL    HW236814   1.929   3.306   3.935 -1.4014  0.7900 -1.6502
 9939SOL     OW36815   0.949   1.805   3.833 -0.6282  0.2681  0.2854
 9939SOL    HW136816   0.887   1.866   3.882 -1.5773 -0.2682 -0.2197
 9939SOL    HW236817   0.905   1.774   3.749  0.0377 -0.7180  0.2932
 9940SOL     OW36818   7.140   4.818   4.962  0.3171  0.0846 -0.1303
 9940SOL    HW136819   7.089   4.757   5.023 -0.2396 -0.7761 -1.4418
 9940SOL    HW236820   7.076   4.873   4.909  0.8085  1.0620  0.2852
 9941SOL     OW36821   6.746   3.635   6.751 -0.1693 -0.6440 -0.1453
 9941SOL    HW136822   6.663   3.676   6.788  0.6528  1.2359 -0.3280
 9941SOL    HW236823   6.730   3.605   6.657 -0.7888 -0.7627 -0.0054
 9942SOL     OW36824   0.028   1.163   0.029  0.0563  0.2465 -0.3724
 9942SOL    HW136825   0.037   1.169  -0.071  1.1964 -0.1631 -0.2967
 9942SOL    HW236826   0.109   1.119   0.067  0.5878  2.3514  0.9491
 9943SOL     OW36827   1.314   1.716   1.387 -0.1101  0.1258  0.6290
 9943SOL    HW136828   1.354   1.694   1.298  0.5498  3.4085  0.0537
 9943SOL    HW236829   1.220   1.684   1.391  0.7033 -2.4656 -0.1958
 9944SOL     OW36830   1.827   0.081   2.968 -0.8107 -0.1115 -0.3589
 9944SOL    HW136831   1.751   0.023   2.997 -0.8282  0.1360  0.0921
 9944SOL    HW236832   1.816   0.173   3.008 -0.4808  0.0356 -0.6044
 9945SOL     OW36833   6.245   3.115   6.291 -0.2303  0.1553  0.5753
 9945SOL    HW136834   6.296   3.134   6.207 -0.8499 -2.1858 -0.3769
 9945SOL    HW236835   6.302   3.135   6.370  1.4916 -0.6530 -0.4449
 9946SOL     OW36836   5.176   6.478   5.919 -0.2416 -0.3023 -0.3135
 9946SOL    HW136837   5.258   6.527   5.948 -0.9023  1.2142 -0.9346
 9946SOL    HW236838   5.195   6.380   5.913  1.2478 -0.0665  0.4614
 9947SOL     OW36839   0.288   5.880   7.118  0.3706 -0.0766  0.5958
 9947SOL    HW136840   0.229   5.960   7.119  0.2713 -0.1541  1.1615
 9947SOL    HW236841   0.354   5.886   7.193  1.0007 -0.0501  0.0417
 9948SOL     OW36842   1.036   1.089   2.763 -0.1189 -0.1175  0.3852
 9948SOL    HW136843   1.135   1.076   2.756 -0.0915  0.6065 -0.6815
 9948SOL    HW236844   1.017   1.172   2.817 -0.1772 -0.8982  1.5907
 9949SOL     OW36845   3.898   0.785   2.665  0.4151 -0.6534  0.2223
 9949SOL    HW136846   3.885   0.748   2.573 -0.0552  1.3196 -0.5252
 9949SOL    HW236847   3.809   0.814   2.702  0.9197  0.8927  0.2701
 9950SOL     OW36848   3.141   5.653   5.623 -0.2171  0.1251  0.4299
 9950SOL    HW136849   3.156   5.736   5.677  2.1402 -1.1511  1.8003
 9950SOL    HW236850   3.044   5.647   5.598 -0.4572  3.1922  0.4208
 9951SOL     OW36851   3.988   0.433   5.153  0.4508 -0.5020 -0.6372
 9951SOL    HW136852   3.997   0.469   5.246 -0.0857 -1.6309 -0.1423
 9951SOL    HW236853   3.892   0.416   5.132  0.7324 -2.1875 -0.6481
 9952SOL     OW36854   5.943   5.624   0.041  0.0357 -0.2067 -0.0781
 9952SOL    HW136855   6.008   5.550   0.052 -1.8610 -1.9429 -0.3380
 9952SOL    HW236856   5.891   5.611  -0.044  0.1679  1.8018 -0.4980
 9953SOL     OW36857   5.126   3.222   2.203  0.1145 -0.2535 -0.2166
 9953SOL    HW136858   5.221   3.251   2.215 -0.3749  1.6275 -0.8034
 9953SOL    HW236859   5.099   3.234   2.107 -0.6948 -0.8870 -0.0758
 9954SOL     OW36860   4.482   6.219   3.123 -0.3663 -0.2895 -0.0829
 9954SOL    HW136861   4.429   6.272   3.189 -1.8201 -0.7226 -0.8704
 9954SOL    HW236862   4.445   6.126   3.117  2.0373 -1.3804  1.1462
 9955SOL     OW36863   1.539   5.141   5.813 -0.1110  0.0842 -0.5897
 9955SOL    HW136864   1.576   5.224   5.854  0.3308  0.1098 -1.0336
 9955SOL    HW236865   1.441   5.136   5.830 -0.0985  0.5796 -0.3630
 9956SOL     OW36866   0.285   2.798   5.454  0.4194 -0.9589  0.1945
 9956SOL    HW136867   0.288   2.844   5.543 -0.9998  1.6908 -1.0589
 9956SOL    HW236868   0.372   2.813   5.406  0.2584 -0.2347  0.1203
 9957SOL     OW36869   0.926   4.640   3.445 -0.1898 -0.1183  0.0979
 9957SOL    HW136870   1.009   4.584   3.440 -0.0564 -0.0140  0.9790
 9957SOL    HW236871   0.942   4.728   3.400  0.8803  0.7252  2.0380
 9958SOL     OW36872   4.927   4.966   6.418  0.1832  0.2457  0.1753
 9958SOL    HW136873   4.972   5.053   6.438 -0.4701  0.4858  0.6206
 9958SOL    HW236874   4.987   4.910   6.361 -0.6677  2.2887 -2.8983
 9959SOL     OW36875   4.614   0.094   7.241 -0.3053  0.2377  0.4873
 9959SOL    HW136876   4.618   0.187   7.279 -0.4953  0.9141 -1.1114
 9959SOL    HW236877   4.638   0.028   7.312  1.6839  1.6417  1.1602
 9960SOL     OW36878   0.516   4.122   7.281  0.1940 -0.2337  0.0657
 9960SOL    HW136879   0.465   4.076   7.209  1.2805  0.1921 -0.9884
 9960SOL    HW236880   0.483   4.091   7.370 -0.9942 -0.9401 -0.6109
 9961SOL     OW36881   2.088   6.864   6.832 -0.1269 -0.3896  0.0510
 9961SOL    HW136882   2.163   6.824   6.780 -0.4518 -0.9073 -0.0196
 9961SOL    HW236883   2.098   6.964   6.835  0.7305 -0.4811  0.2986
 9962SOL     OW36884   4.805   3.523   2.409 -0.0637 -0.1542 -0.8325
 9962SOL    HW136885   4.743   3.446   2.391 -1.4132  0.6880  0.1079
 9962SOL    HW236886   4.760   3.608   2.383  0.0733  0.6118  1.3666
 9963SOL     OW36887   1.130   4.758   5.790  0.1847  0.4189 -0.1120
 9963SOL    HW136888   1.139   4.659   5.774  1.4795  0.2633  1.5059
 9963SOL    HW236889   1.214   4.804   5.763  0.0910  0.9077  0.4266
 9964SOL     OW36890   0.509   2.943   2.873  0.3727 -0.0120 -0.4394
 9964SOL    HW136891   0.581   2.885   2.836  1.5945  0.5366  1.0273
 9964SOL    HW236892   0.478   2.907   2.961  0.0780  0.7200 -0.2361
 9965SOL     OW36893   4.304   2.861   4.095  0.4895  0.6477  0.4983
 9965SOL    HW136894   4.245   2.907   4.029  0.9556  1.1241  0.4132
 9965SOL    HW236895   4.315   2.919   4.176 -1.4303 -0.6263  1.7345
 9966SOL     OW36896   2.677   3.145   0.217 -0.4678  0.1315 -0.2552
 9966SOL    HW136897   2.581   3.118   0.221 -0.6327  0.5759 -1.0952
 9966SOL    HW236898   2.731   3.086   0.278 -1.2132 -0.3615 -0.0674
 9967SOL     OW36899   6.446   2.416   7.230  0.1784  0.6202 -0.3349
 9967SOL    HW136900   6.377   2.473   7.184  0.9222 -0.4046 -2.7934
 9967SOL    HW236901   6.521   2.397   7.166  0.6855 -1.8236  0.9405
 9968SOL     OW36902   1.655   4.143   1.797 -0.3697  0.3348 -0.1871
 9968SOL    HW136903   1.622   4.237   1.808 -0.6232  0.2897 -0.5517
 9968SOL    HW236904   1.669   4.124   1.699 -1.5224 -0.4123 -0.2170
 9969SOL     OW36905   3.888   0.887   1.471 -0.0648  0.1664  0.0285
 9969SOL    HW136906   3.898   0.900   1.372 -0.3629  0.7687  0.0795
 9969SOL    HW236907   3.909   0.792   1.494 -2.3633 -0.5965 -0.9238
 9970SOL     OW36908   5.642   6.323   6.558 -0.6870  0.0904  0.1183
 9970SOL    HW136909   5.597   6.298   6.472  0.2738 -0.6815 -0.1714
 9970SOL    HW236910   5.738   6.345   6.540 -0.8914  1.5849  0.7452
 9971SOL     OW36911   3.418   2.048   6.929  0.4081 -0.0208 -0.1260
 9971SOL    HW136912   3.410   2.098   6.843 -0.0548  0.5791  0.2566
 9971SOL    HW236913   3.383   1.956   6.918  1.5070 -0.3589 -0.9163
 9972SOL     OW36914   5.540   5.015   3.218  0.1492 -0.0461 -0.3249
 9972SOL    HW136915   5.444   5.009   3.245 -0.2107  1.5177 -1.1859
 9972SOL    HW236916   5.570   4.926   3.184 -1.3722 -0.2190 -1.2803
 9973SOL     OW36917   0.362   0.146   0.862 -0.0836 -0.5115 -0.2468
 9973SOL    HW136918   0.294   0.206   0.904  0.1855 -0.3698 -0.0033
 9973SOL    HW236919   0.331   0.052   0.866 -0.9991 -0.2732 -1.6093
 9974SOL     OW36920   4.340   0.667   3.150 -0.4886  0.3694  0.2843
 9974SOL    HW136921   4.294   0.583   3.179 -1.2026  0.7430  0.2484
 9974SOL    HW236922   4.438   0.649   3.138 -0.7539 -0.6501 -0.4537
 9975SOL     OW36923   4.991   4.563   0.195  0.3262 -0.2215  0.1341
 9975SOL    HW136924   5.042   4.507   0.260 -2.6353 -3.0212  0.1974
 9975SOL    HW236925   5.045   4.575   0.112  2.4352 -0.2027  1.4668
 9976SOL     OW36926   4.927   5.999   4.516 -0.1451  0.2518  0.1153
 9976SOL    HW136927   4.917   6.001   4.616 -2.1046 -1.5793 -0.0208
 9976SOL    HW236928   5.025   5.993   4.493  0.3785  1.5080  1.8862
 9977SOL     OW36929   5.336   6.065   3.227 -0.3340  0.8070 -0.0814
 9977SOL    HW136930   5.250   6.100   3.264  0.0661  0.6127  1.0506
 9977SOL    HW236931   5.337   5.965   3.231  0.2470  0.8348  0.6129
 9978SOL     OW36932   3.999   1.719   4.331 -0.3630 -0.2496  0.0909
 9978SOL    HW136933   4.079   1.712   4.270 -0.9576  0.3120 -0.7675
 9978SOL    HW236934   4.012   1.796   4.393  0.1379 -0.6727  0.5119
 9979SOL     OW36935   3.460   5.763   3.829 -0.4327  0.2160  0.7173
 9979SOL    HW136936   3.368   5.751   3.867 -1.8660  0.0883 -2.6293
 9979SOL    HW236937   3.494   5.674   3.797  0.9865  0.2224  2.1507
 9980SOL     OW36938   6.501   2.444   5.694 -0.0586 -0.9357  0.5877
 9980SOL    HW136939   6.437   2.452   5.771  1.2903 -0.5769  1.7046
 9980SOL    HW236940   6.594   2.454   5.728  0.4672  1.4230 -1.4351
 9981SOL     OW36941   5.130   2.419   2.007 -0.4114  0.3556  0.0923
 9981SOL    HW136942   5.172   2.331   2.032  1.6375  0.4973 -2.6259
 9981SOL    HW236943   5.113   2.472   2.090  1.0673 -1.4005  1.5760
 9982SOL     OW36944   5.168   0.722   1.315  0.6323  0.3896  0.2272
 9982SOL    HW136945   5.200   0.806   1.271  1.8288 -0.6231 -0.8610
 9982SOL    HW236946   5.071   0.710   1.296  0.3604  1.6981  0.6852
 9983SOL     OW36947   0.712   7.286   0.105 -0.0149  0.1372 -0.5261
 9983SOL    HW136948   0.778   7.276   0.179  0.0813 -0.6598 -0.7104
 9983SOL    HW236949   0.738   7.363   0.047 -0.4964  1.2138  0.6811
 9984SOL     OW36950   3.227   0.332   2.443 -0.0794 -0.1855  0.0408
 9984SOL    HW136951   3.187   0.244   2.469  1.8168 -1.4061 -1.0138
 9984SOL    HW236952   3.211   0.400   2.515 -0.5451 -1.7192  1.4010
 9985SOL     OW36953   1.533   1.909   0.438 -0.0497 -0.3386  0.2240
 9985SOL    HW136954   1.594   1.902   0.359  1.7102 -0.4092  1.5585
 9985SOL    HW236955   1.543   2.000   0.479 -1.3845 -0.1016  0.0228
 9986SOL     OW36956   5.665   5.046   1.553 -0.3415  0.1612  0.4910
 9986SOL    HW136957   5.758   5.067   1.522 -0.8489 -0.2972 -1.4306
 9986SOL    HW236958   5.606   5.126   1.540 -0.6978 -0.2265 -0.3328
 9987SOL     OW36959   7.090   2.182   5.824  0.1672  0.5631  0.0481
 9987SOL    HW136960   7.174   2.131   5.805  0.9556  1.7314  0.2831
 9987SOL    HW236961   7.057   2.225   5.740 -1.9063 -2.3473 -0.6849
 9988SOL     OW36962   1.330   4.158   3.974 -0.3751 -0.3017  0.3051
 9988SOL    HW136963   1.261   4.214   3.927  0.5056 -0.3655 -1.1045
 9988SOL    HW236964   1.290   4.118   4.056 -1.2769  1.6921  0.8722
 9989SOL     OW36965   1.631   4.336   5.674 -0.7463  0.1374 -0.1734
 9989SOL    HW136966   1.707   4.352   5.612 -0.5378 -0.1581  0.0077
 9989SOL    HW236967   1.611   4.238   5.679 -1.0167  0.1970 -0.0786
 9990SOL     OW36968   1.773   4.594   1.303  0.0730  0.5264  0.0337
 9990SOL    HW136969   1.731   4.675   1.261 -0.5340  0.0665 -0.2636
 9990SOL    HW236970   1.726   4.512   1.270  0.9444  0.0280  0.0202
 9991SOL     OW36971   4.650   6.969   5.667 -0.3224  0.0967  0.0226
 9991SOL    HW136972   4.551   6.982   5.664 -0.1123  2.1339  0.8163
 9991SOL    HW236973   4.676   6.930   5.756 -0.3989 -0.2411 -0.1049
 9992SOL     OW36974   6.084   5.964   2.936  0.1096  0.5002  0.2714
 9992SOL    HW136975   6.079   6.025   2.857 -0.4911 -0.2432 -0.2709
 9992SOL    HW236976   6.151   5.892   2.919  0.8652  1.0437  0.9377
 9993SOL     OW36977   3.884   5.290   3.031 -0.1523  0.4600 -0.1874
 9993SOL    HW136978   3.797   5.325   2.997 -0.8890 -1.7973 -0.6889
 9993SOL    HW236979   3.876   5.193   3.052  1.5624  0.7792  2.1751
 9994SOL     OW36980   4.546   6.696   3.176  0.0311 -0.4297  0.1018
 9994SOL    HW136981   4.600   6.780   3.174  0.7368 -0.8147  1.9898
 9994SOL    HW236982   4.604   6.618   3.153 -0.5390 -0.4606 -1.2918
 9995SOL     OW36983   0.861   5.086   2.650 -0.0984  0.5218 -0.3867
 9995SOL    HW136984   0.880   5.183   2.634  0.0530  0.2392 -1.9513
 9995SOL    HW236985   0.774   5.062   2.608 -0.5054  0.1396  0.6526
 9996SOL     OW36986   3.276   4.561   2.647  0.3144  0.1450 -0.3906
 9996SOL    HW136987   3.224   4.481   2.619  1.7751 -0.6961 -0.7570
 9996SOL    HW236988   3.251   4.640   2.590 -1.4635  0.0850  0.2754
 9997SOL     OW36989   6.276   6.189   4.987  0.0080  0.6237  0.0100
 9997SOL    HW136990   6.358   6.197   4.931  0.4033  3.3769  0.9051
 9997SOL    HW236991   6.302   6.174   5.083 -0.5632  0.9819  0.2244
 9998SOL     OW36992   5.659   4.732   5.838 -0.1807 -0.3741  0.4568
 9998SOL    HW136993   5.596   4.769   5.770 -0.2009 -0.1076  0.6168
 9998SOL    HW236994   5.699   4.808   5.890  0.6928 -0.4980 -0.0144
 9999SOL     OW36995   1.739   6.579   0.133 -0.3245  0.0752 -0.0728
 9999SOL    HW136996   1.709   6.506   0.070  3.0196 -1.8542  0.4862
 9999SOL    HW236997   1.806   6.542   0.197  0.6748  3.4398  0.8910
10000SOL     OW36998   6.366   2.649   7.006  0.7170 -0.3380 -0.0134
10000SOL    HW136999   6.377   2.577   6.938  0.8975 -0.7054  0.4043
10000SOL    HW237000   6.447   2.653   7.065  0.4048 -0.2712  0.4171
   7.35934   7.35934   7.35934
